----- GAMESS execution script 'rungms' -----
This job is running on host localhost
under operating system Linux at Sat May 24 19:08:57 JST 2014
PBS has assigned the following compute nodes to this run:
c1030
Copying input file 000000001.4.inp to your run's scratch directory...

 Distributed Data Interface kickoff program.
 Initiating 2 compute processes on 1 nodes to run the following command:
 /home/maho/pubchemqc.quest/build/gamess/gamess.00.x 000000001.4 

          ******************************************************
          *         GAMESS VERSION =  1 MAY 2013 (R1)          *
          *             FROM IOWA STATE UNIVERSITY             *
          * M.W.SCHMIDT, K.K.BALDRIDGE, J.A.BOATZ, S.T.ELBERT, *
          *   M.S.GORDON, J.H.JENSEN, S.KOSEKI, N.MATSUNAGA,   *
          *          K.A.NGUYEN, S.J.SU, T.L.WINDUS,           *
          *       TOGETHER WITH M.DUPUIS, J.A.MONTGOMERY       *
          *         J.COMPUT.CHEM.  14, 1347-1363(1993)        *
          **************** 64 BIT INTEL VERSION ****************

  SINCE 1993, STUDENTS AND POSTDOCS WORKING AT IOWA STATE UNIVERSITY
  AND ALSO IN THEIR VARIOUS JOBS AFTER LEAVING ISU HAVE MADE IMPORTANT
  CONTRIBUTIONS TO THE CODE:
     IVANA ADAMOVIC, CHRISTINE AIKENS, YURI ALEXEEV, POOJA ARORA,
     ANDREY ASADCHEV, ROB BELL, PRADIPTA BANDYOPADHYAY, JONATHAN BENTZ,
     BRETT BODE, GALINA CHABAN, WEI CHEN, CHEOL HO CHOI, PAUL DAY,
     ALBERT DEFUSCO, TIM DUDLEY, DMITRI FEDOROV, GRAHAM FLETCHER,
     MARK FREITAG, KURT GLAESEMANN, DAN KEMP, GRANT MERRILL,
     NORIYUKI MINEZAWA, JONATHAN MULLIN, TAKESHI NAGATA,
     SEAN NEDD, HEATHER NETZLOFF, BOSILJKA NJEGIC, RYAN OLSON, MIKE PAK,
     JIM SHOEMAKER, LYUDMILA SLIPCHENKO, SAROM SOK, JIE SONG,
     TETSUYA TAKETSUGU, SIMON WEBB, SOOHAENG YOO, FEDERICO ZAHARIEV

  ADDITIONAL CODE HAS BEEN PROVIDED BY COLLABORATORS IN OTHER GROUPS:
     IOWA STATE UNIVERSITY:
          JOE IVANIC, LAIMUTIS BYTAUTAS, KLAUS RUEDENBERG
     UNIVERSITY OF TOKYO: KIMIHIKO HIRAO, TAKAHITO NAKAJIMA,
          TAKAO TSUNEDA, MUNEAKI KAMIYA, SUSUMU YANAGISAWA,
          KIYOSHI YAGI, MAHITO CHIBA, SEIKEN TOKURA, NAOAKI KAWAKAMI
     UNIVERSITY OF AARHUS: FRANK JENSEN
     UNIVERSITY OF IOWA: VISVALDAS KAIRYS, HUI LI
     NATIONAL INST. OF STANDARDS AND TECHNOLOGY: WALT STEVENS, DAVID GARMER
     UNIVERSITY OF PISA: BENEDETTA MENNUCCI, JACOPO TOMASI
     UNIVERSITY OF MEMPHIS: HENRY KURTZ, PRAKASHAN KORAMBATH
     UNIVERSITY OF ALBERTA: TOBY ZENG, MARIUSZ KLOBUKOWSKI
     UNIVERSITY OF NEW ENGLAND: MARK SPACKMAN
     MIE UNIVERSITY: HIROAKI UMEDA
     MICHIGAN STATE UNIVERSITY:
          KAROL KOWALSKI, MARTA WLOCH, JEFFREY GOUR, JESSE LUTZ,
          WEI LI, PIOTR PIECUCH
     UNIVERSITY OF SILESIA: MONIKA MUSIAL, STANISLAW KUCHARSKI
     FACULTES UNIVERSITAIRES NOTRE-DAME DE LA PAIX:
          OLIVIER QUINET, BENOIT CHAMPAGNE
     UNIVERSITY OF CALIFORNIA - SANTA BARBARA: BERNARD KIRTMAN
     INSTITUTE FOR MOLECULAR SCIENCE:
          KAZUYA ISHIMURA, MICHIO KATOUDA, AND SHIGERU NAGASE
     UNIVERSITY OF NOTRE DAME: DAN CHIPMAN
     KYUSHU UNIVERSITY:
          HARUYUKI NAKANO,
          FENG LONG GU, JACEK KORCHOWIEC, MARCIN MAKOWSKI, AND YURIKO AOKI,
          HIROTOSHI MORI AND EISAKU MIYOSHI
     PENNSYLVANIA STATE UNIVERSITY:
          TZVETELIN IORDANOV, CHET SWALINA, JONATHAN SKONE,
          SHARON HAMMES-SCHIFFER
     WASEDA UNIVERSITY:
          MASATO KOBAYASHI, TOMOKO AKAMA, TSUGUKI TOUMA,
          TAKESHI YOSHIKAWA, YASUHIRO IKABATA, HIROMI NAKAI
     NANJING UNIVERSITY: SHUHUA LI
     UNIVERSITY OF NEBRASKA:
          PEIFENG SU, DEJUN SI, NANDUN THELLAMUREGE, YALI WANG, HUI LI
     UNIVERSITY OF ZURICH:
          ROBERTO PEVERATI, KIM BALDRIDGE
     N. COPERNICUS UNIVERSITY AND JACKSON STATE UNIVERSITY:
          MARIA BARYSZ


 PARALLEL VERSION RUNNING ON     2 PROCESSORS IN     1 NODES.

 EXECUTION OF GAMESS BEGUN Sat May 24 19:08:58 2014

            ECHO OF THE FIRST FEW INPUT CARDS -
 INPUT CARD> $CONTRL RUNTYP=OPTIMIZE UNITS=ANGS DFTTYP=B3LYPV1R $END                        
 INPUT CARD> $BASIS GBASIS=N31 NGAUSS=6 NDFUNC=1 $END                                       
 INPUT CARD> $ZMAT DLC=.T. AUTO=.T. $END                                                    
 INPUT CARD> $SCF DIRSCF=.T. FDIFF=.T. $END                                                 
 INPUT CARD> $STATPT NSTEP=3 OPTTOL=5D-4 $END                                               
 INPUT CARD> $SYSTEM TIMLIM=99999999999 MWORDS=200 $END                                     
 INPUT CARD>                                                                                
 INPUT CARD> $DATA                                                                          
 INPUT CARD>PUBCHEM 000000001 B3LYP 6-31G(d) gamess geometry optimization                   
 INPUT CARD>C1                                                                              
 INPUT CARD>C      6.0      9.0222826408    4.8372353216   -3.0906412175                    
 INPUT CARD>C      6.0      8.6952767673    3.4064427818   -3.4441728955                    
 INPUT CARD>O      8.0      8.5944177792    2.9823790150   -4.5846751688                    
 INPUT CARD>O      8.0      8.5455819883    2.6499509458   -2.3475135139                    
 INPUT CARD>C      6.0      8.3698120938    1.2020990569   -2.5349048241                    
 INPUT CARD>C      6.0      8.6647577266    0.5294024869   -1.2008750252                    
 INPUT CARD>C      6.0      8.5550814701   -1.0368279476   -1.2959521601                    
 INPUT CARD>O      8.0      8.8500010374   -1.6664995209   -0.2802564843                    
 INPUT CARD>O      8.0      8.1513767237   -1.4704289986   -2.4316450854                    
 INPUT CARD>C      6.0      6.9244929853    0.9274760805   -3.0031064451                    
 INPUT CARD>N      7.0      6.6935901536    0.2395790177   -4.3814679324                    
 INPUT CARD>C      6.0      5.9817332959    1.1956031490   -5.2951096112                    
 INPUT CARD>C      6.0      7.9625091247   -0.2179760820   -5.0647032529                    
 INPUT CARD>C      6.0      5.8313688172   -0.9793434047   -4.1489445426                    
 INPUT CARD>H      1.0      8.4079571540    5.1812425343   -2.2542518161                    
 INPUT CARD>H      1.0      8.8762215233    5.4746596917   -3.9636789026                    
 INPUT CARD>H      1.0     10.0700897719    4.8983856667   -2.7747484947                    
 INPUT CARD>H      1.0      9.1018155847    0.8891549701   -3.2738878931                    
 INPUT CARD>H      1.0      7.9732992070    0.8930986042   -0.4295524137                    
 INPUT CARD>H      1.0      9.6714704150    0.8010411684   -0.8678508667                    
 INPUT CARD>H      1.0      6.3755486669    1.8698523471   -3.0533938538                    
 INPUT CARD>H      1.0      6.4467057580    0.2766928271   -2.2776363825                    
 INPUT CARD>H      1.0      6.6141424450    2.0731481853   -5.4298103589                    
 INPUT CARD>H      1.0      5.0269938690    1.4739054927   -4.8441280833                    
 INPUT CARD>H      1.0      5.8044325277    0.7006366574   -6.2520370851                    
 INPUT CARD>H      1.0      8.5514149899    0.6633274336   -5.3125285401                    
 INPUT CARD>H      1.0      7.6648057377   -0.7427464838   -5.9752043440                    
 INPUT CARD>H      1.0      8.4691252541   -0.8836680799   -4.3616346623                    
 INPUT CARD>H      1.0      4.8879881892   -0.6551975436   -3.7037785183                    
 INPUT CARD>H      1.0      6.3916494343   -1.6293260399   -3.4699039647                    
 INPUT CARD>H      1.0      5.6406239372   -1.4570372518   -5.1124939404                    
 INPUT CARD> $END                                                                           
 INPUT CARD>                                                                                
 INPUT CARD>                                                                                
  200000000 WORDS OF MEMORY AVAILABLE

     BASIS OPTIONS
     -------------
     GBASIS=N31          IGAUSS=       6      POLAR=POPN31  
     NDFUNC=       1     NFFUNC=       0     DIFFSP=       F
     NPFUNC=       0      DIFFS=       F     BASNAM=        


     RUN TITLE
     ---------
 PUBCHEM 000000001 B3LYP 6-31G(d) gamess geometry optimization                   

 THE POINT GROUP OF THE MOLECULE IS C1      
 THE ORDER OF THE PRINCIPAL AXIS IS     0

 ATOM      ATOMIC                      COORDINATES (BOHR)
           CHARGE         X                   Y                   Z
 C           6.0    17.0496419749        9.1410492960       -5.8404650274
 C           6.0    16.4316904776        6.4372434505       -6.5085430268
 O           8.0    16.2410946267        5.6358791299       -8.6637798117
 O           8.0    16.1488083635        5.0076811685       -4.4361572937
 C           6.0    15.8166514260        2.2716378276       -4.7902755225
 C           6.0    16.3740178533        1.0004256375       -2.2693247431
 C           6.0    16.1667597811       -1.9593207174       -2.4489944758
 O           8.0    16.7240769517       -3.1492274532       -0.5296079616
 O           8.0    15.4038684305       -2.7787078918       -4.5951429108
 C           6.0    13.0853943461        1.7526756523       -5.6750482932
 N           7.0    12.6490512644        0.4527386959       -8.2797738162
 C           6.0    11.3038368609        2.2593623417      -10.0063062401
 C           6.0    15.0469604204       -0.4119150669       -9.5709013571
 C           6.0    11.0196891979       -1.8506906828       -7.8403683238
 H           1.0    15.8887351376        9.7911286658       -4.2599182398
 H           1.0    16.7736264854       10.3456066933       -7.4902670292
 H           1.0    19.0297103407        9.2566066922       -5.2435143398
 H           1.0    17.1999374459        1.6802592541       -6.1867510325
 H           1.0    15.0673507194        1.6877116420       -0.8117363593
 H           1.0    18.2764289827        1.5137483132       -1.6400003363
 H           1.0    12.0480400018        3.5335085735       -5.7700777163
 H           1.0    12.1825074061        0.5228736260       -4.3041086626
 H           1.0    12.4989168648        3.9176820022      -10.2608537436
 H           1.0     9.4996409544        2.7852775130       -9.1540747269
 H           1.0    10.9687869916        1.3240112994      -11.8146369559
 H           1.0    16.1598311382        1.2535070896      -10.0392232427
 H           1.0    14.4843825934       -1.4035873327      -11.2914989308
 H           1.0    16.0043260859       -1.6698905351       -8.2422943703
 H           1.0     9.2369583088       -1.2381438252       -6.9991265188
 H           1.0    12.0784660404       -3.0789797601       -6.5571676970
 H           1.0    10.6592336411       -2.7534011598       -9.6612126612

          INTERNUCLEAR DISTANCES (ANGS.)
          ------------------------------

                1 C          2 C          3 O          4 O          5 C     

   1 C       0.0000000    1.5096638 *  2.4198549 *  2.3587487 *  3.7348061  
   2 C       1.5096638 *  0.0000000    1.2209619 *  1.3406529 *  2.4066215 *
   3 O       2.4198549 *  1.2209619 *  0.0000000    2.2622523 *  2.7242252 *
   4 O       2.3587487 *  1.3406529 *  2.2622523 *  0.0000000    1.4704712 *
   5 C       3.7348061    2.4066215 *  2.7242252 *  1.4704712 *  0.0000000  
   6 C       4.7176757    3.6483801    4.1799695    2.4136504 *  1.5228753 *
   7 C       6.1598543    4.9373233    5.1933872    3.8338245    2.5655648 *
   8 O       7.0870664    5.9807232    6.3407740    4.7956196    3.6800650  
   9 O       6.4015141    5.0104808    4.9658155    4.1400491    2.6834274 *
  10 C       4.4378600    3.0782285    3.0842559    2.4545165 *  1.5438840 *
  11 N       5.3129545    3.8619033    3.3432605    3.6574222    2.6731929 *
  12 C       5.2312624    3.9594314    3.2439799    4.1685454    3.6498895  
  13 C       5.5294849    4.0372613    3.2972729    3.9935072    2.9295715 *
  14 C       6.7182234    5.2852429    4.8496954    4.8768724    3.7158458  
  15 H       1.0932904 *  2.1560099 *  3.2094612    2.5367450 *  3.9892109  
  16 H       1.0907972 *  2.1401282 *  2.5838949 *  3.2711302    4.5334998  
  17 H       1.0960964 *  2.1363833 *  3.0206827    2.7499295 *  4.0756599  
  18 H       3.9531308    2.5555838 *  2.5213494 *  2.0659060 *  1.0862132 *
  19 H       4.8721632    3.9907502    4.6921132    2.6631959 *  2.1645352 *
  20 H       4.6532897    3.7919002    4.4421909    2.6221163 *  2.1527263 *
  21 H       3.9764242    2.8097966 *  2.9164907 *  2.4116106 *  2.1660591 *
  22 H       5.3002944    4.0264393    4.1540140    3.1689933    2.1496283 *
  23 H       4.3486813    3.1704181    2.3371873 *  3.6828948    3.4959377  
  24 H       5.5089959    4.3761712    3.8819224    4.4717591    4.0719559  
  25 H       6.1204928    4.8541187    3.9712041    5.1535455    4.5441951  
  26 H       4.7518425    3.3220673    2.4309710 *  3.5690364    2.8352157 *
  27 H       6.4264800    4.9682756    4.0834189    5.0444329    4.0143641  
  28 H       5.8864372    4.3929411    3.8745020    4.0680454    2.7743881 *
  29 H       6.9018220    5.5731287    5.2674057    5.1128714    4.1156912  
  30 H       6.9914582    5.5377187    5.2309394    4.9205078    3.5783123  
  31 H       7.4257236    5.9806051    5.3583493    5.7403179    4.6003738  

                6 C          7 C          8 O          9 O         10 C     

   1 C       4.7176757    6.1598543    7.0870664    6.4015141    4.4378600  
   2 C       3.6483801    4.9373233    5.9807232    5.0104808    3.0782285  
   3 O       4.1799695    5.1933872    6.3407740    4.9658155    3.0842559  
   4 O       2.4136504 *  3.8338245    4.7956196    4.1400491    2.4545165 *
   5 C       1.5228753 *  2.5655648 *  3.6800650    2.6834274 *  1.5438840 *
   6 C       0.0000000    1.5729419 *  2.3882712 *  2.4036807 *  2.5367345 *
   7 C       1.5729419 *  0.0000000    1.2308946 *  1.2809316 *  3.0711048  
   8 O       2.3882712 *  1.2308946 *  0.0000000    2.2704609 *  4.2249500  
   9 O       2.4036807 *  1.2809316 *  2.2704609 *  0.0000000    2.7534997 *
  10 C       2.5367345 *  3.0711048    4.2249500    2.7534997 *  0.0000000  
  11 N       3.7530881    3.8229272    5.0103072    2.9750762 *  1.5576902 *
  12 C       4.9401620    5.2534874    6.4472741    4.4737578    2.4927829 *
  13 C       3.9976113    3.9019412    5.0770851    2.9218666 *  2.5767653 *
  14 C       4.3583851    3.9448043    4.9549038    2.9279206 *  2.4786742 *
  15 H       4.7765223    6.2932014    7.1402823    6.6589816    4.5668346  
  16 H       5.6686304    7.0441017    8.0352003    7.1489009    5.0407165  
  17 H       4.8518089    6.3014958    7.1280309    6.6604039    5.0710008  
  18 H       2.1489122 *  2.8143486 *  3.9441868    2.6796163 *  2.1944304 *
  19 H       1.0978745 *  2.1940227 *  2.7096933 *  3.1026359    2.7792727 *
  20 H       1.0946064 *  2.1925688 *  2.6662401 *  3.1489227    3.4815495  
  21 H       3.2356004    4.0358091    5.1302037    3.8337470    1.0917608 *
  22 H       2.4785140 *  2.6710090 *  3.6798575    2.4458243 *  1.0854060 *
  23 H       4.9469251    5.5252131    6.7455121    4.8896854    2.7014392 *
  24 H       5.2343772    5.5982798    6.7310067    4.9245252    2.6997127 *
  25 H       5.8073246    5.9285437    7.1092183    4.9816732    3.4440589  
  26 H       4.1153951    4.3615854    5.5534682    3.6072755    2.8372663 *
  27 H       5.0410800    4.7722611    5.8898590    3.6500802    3.4887064  
  28 H       3.4677719    3.0707093    4.1731929    2.0420853 *  2.7407537 *
  29 H       4.6831390    4.4035035    5.3329898    3.5961967    2.6726670 *
  30 H       3.8698349    3.1237091    4.0272479    2.0493584 *  2.6531225 *
  31 H       5.3284229    4.8204387    5.8046959    3.6730110    3.4327451  

               11 N         12 C         13 C         14 C         15 H     

   1 C       5.3129545    5.2312624    5.5294849    6.7182234    1.0932904 *
   2 C       3.8619033    3.9594314    4.0372613    5.2852429    2.1560099 *
   3 O       3.3432605    3.2439799    3.2972729    4.8496954    3.2094612  
   4 O       3.6574222    4.1685454    3.9935072    4.8768724    2.5367450 *
   5 C       2.6731929 *  3.6498895    2.9295715 *  3.7158458    3.9892109  
   6 C       3.7530881    4.9401620    3.9976113    4.3583851    4.7765223  
   7 C       3.8229272    5.2534874    3.9019412    3.9448043    6.2932014  
   8 O       5.0103072    6.4472741    5.0770851    4.9549038    7.1402823  
   9 O       2.9750762 *  4.4737578    2.9218666 *  2.9279206 *  6.6589816  
  10 C       1.5576902 *  2.4927829 *  2.5767653 *  2.4786742 *  4.5668346  
  11 N       0.0000000    1.5018200 *  1.5120590 *  1.5110475 *  5.6466044  
  12 C       1.5018200 *  0.0000000    2.4443335 *  2.4630665 *  5.5694434  
  13 C       1.5120590 *  2.4443335 *  0.0000000    2.4413220 *  6.1031650  
  14 C       1.5110475 *  2.4630665 *  2.4413220 *  0.0000000    6.9412886  
  15 H       5.6466044    5.5694434    6.1031650    6.9412886    0.0000000  
  16 H       5.6872223    5.3348941    5.8696871    7.1385998    1.7965261 *
  17 H       5.9738410    6.0644437    5.9885680    7.3758301    1.7645423 *
  18 H       2.7291450 *  3.7301691    2.3939043 *  3.8668892    4.4657713  
  19 H       4.2050421    5.2660698    4.7664690    4.6827110    4.6804523  
  20 H       4.6398831    5.7767170    4.6446221    5.3555322    4.7649488  
  21 H       2.1266693 *  2.3738138 *  3.3049715    3.1006902    3.9666884  
  22 H       2.1185931 *  3.1883758    3.2109343    2.3362493 *  5.2822024  
  23 H       2.1136011 *  1.0900325 *  2.6834020 *  3.4016256    4.7918883  
  24 H       2.1248905 *  1.0919542 *  3.3953448    2.6737108 *  5.6464785  
  25 H       2.1218399 *  1.0918505 *  2.6288601 *  2.6918501 *  6.5449566  
  26 H       2.1208370 *  2.6242875 *  1.0885419 *  3.3839247    5.4575813  
  27 H       2.1090801 *  2.6556470 *  1.0922562 *  2.5985946 *  7.0350130  
  28 H       2.1010955 *  3.3737017    1.0927539 *  2.6480464 *  6.4208991  
  29 H       2.1260495 *  2.6747105 *  3.3905689    1.0923417 *  6.9681663  
  30 H       2.1011719 *  3.3881605    2.6462981 *  1.0942979 *  7.2060496  
  31 H       2.1264157 *  2.6807098 *  2.6322438 *  1.0922465 *  7.7391498  

               16 H         17 H         18 H         19 H         20 H     

   1 C       1.0907972 *  1.0960964 *  3.9531308    4.8721632    4.6532897  
   2 C       2.1401282 *  2.1363833 *  2.5555838 *  3.9907502    3.7919002  
   3 O       2.5838949 *  3.0206827    2.5213494 *  4.6921132    4.4421909  
   4 O       3.2711302    2.7499295 *  2.0659060 *  2.6631959 *  2.6221163 *
   5 C       4.5334998    4.0756599    1.0862132 *  2.1645352 *  2.1527263 *
   6 C       5.6686304    4.8518089    2.1489122 *  1.0978745 *  1.0946064 *
   7 C       7.0441017    6.3014958    2.8143486 *  2.1940227 *  2.1925688 *
   8 O       8.0352003    7.1280309    3.9441868    2.7096933 *  2.6662401 *
   9 O       7.1489009    6.6604039    2.6796163 *  3.1026359    3.1489227  
  10 C       5.0407165    5.0710008    2.1944304 *  2.7792727 *  3.4815495  
  11 N       5.6872223    5.9738410    2.7291450 *  4.2050421    4.6398831  
  12 C       5.3348941    6.0644437    3.7301691    5.2660698    5.7767170  
  13 C       5.8696871    5.9885680    2.3939043 *  4.7664690    4.6446221  
  14 C       7.1385998    7.3758301    3.8668892    4.6827110    5.3555322  
  15 H       1.7965261 *  1.7645423 *  4.4657713    4.6804523    4.7649488  
  16 H       0.0000000    1.7807214 *  4.6425809    5.8562805    5.6620917  
  17 H       1.7807214 *  0.0000000    4.1545909    5.0930148    4.5368919  
  18 H       4.6425809    4.1545909    0.0000000    3.0600342    2.4741230 *
  19 H       5.8562805    5.0930148    3.0600342    0.0000000    1.7562362 *
  20 H       5.6620917    4.5368919    2.4741230 *  1.7562362 *  0.0000000  
  21 H       4.4806941    4.7853204    2.9056697 *  3.2235692    4.0965907  
  22 H       5.9803132    5.8937320    2.9012472 *  2.4750471 *  3.5583063  
  23 H       4.3401410    5.1937359    3.4983366    5.3143583    5.6371079  
  24 H       5.6211901    6.4375626    4.4058778    5.3391507    6.1509909  
  25 H       6.1207652    6.9215941    4.4472066    6.2162973    6.6297454  
  26 H       5.0073758    5.1655028    2.1236748 *  4.9224454    4.5857005  
  27 H       6.6460441    6.9174187    3.4677385    5.7901134    5.7004423  
  28 H       6.3837629    6.2059198    2.1740266 *  4.3432723    4.0608379  
  29 H       7.3176979    7.6524218    4.5084556    4.7578274    5.7484623  
  30 H       7.5421168    7.5249707    3.7048845    4.2553472    4.8409287  
  31 H       7.7354567    8.0917626    4.5678154    5.7353687    6.2740447  

               21 H         22 H         23 H         24 H         25 H     

   1 C       3.9764242    5.3002944    4.3486813    5.5089959    6.1204928  
   2 C       2.8097966 *  4.0264393    3.1704181    4.3761712    4.8541187  
   3 O       2.9164907 *  4.1540140    2.3371873 *  3.8819224    3.9712041  
   4 O       2.4116106 *  3.1689933    3.6828948    4.4717591    5.1535455  
   5 C       2.1660591 *  2.1496283 *  3.4959377    4.0719559    4.5441951  
   6 C       3.2356004    2.4785140 *  4.9469251    5.2343772    5.8073246  
   7 C       4.0358091    2.6710090 *  5.5252131    5.5982798    5.9285437  
   8 O       5.1302037    3.6798575    6.7455121    6.7310067    7.1092183  
   9 O       3.8337470    2.4458243 *  4.8896854    4.9245252    4.9816732  
  10 C       1.0917608 *  1.0854060 *  2.7014392 *  2.6997127 *  3.4440589  
  11 N       2.1266693 *  2.1185931 *  2.1136011 *  2.1248905 *  2.1218399 *
  12 C       2.3738138 *  3.1883758    1.0900325 *  1.0919542 *  1.0918505 *
  13 C       3.3049715    3.2109343    2.6834020 *  3.3953448    2.6288601 *
  14 C       3.1006902    2.3362493 *  3.4016256    2.6737108 *  2.6918501 *
  15 H       3.9666884    5.2822024    4.7918883    5.6464785    6.5449566  
  16 H       4.4806941    5.9803132    4.3401410    5.6211901    6.1207652  
  17 H       4.7853204    5.8937320    5.1937359    6.4375626    6.9215941  
  18 H       2.9056697 *  2.9012472 *  3.4983366    4.4058778    4.4472066  
  19 H       3.2235692    2.4750471 *  5.3143583    5.3391507    6.2162973  
  20 H       4.0965907    3.5583063    5.6371079    6.1509909    6.6297454  
  21 H       0.0000000    1.7734205 *  2.3970005 *  2.2764233 *  3.4531953  
  22 H       1.7734205 *  0.0000000    3.6320088    3.1679299    4.0482224  
  23 H       2.3970005 *  3.6320088    0.0000000    1.7947580 *  1.7931745 *
  24 H       2.2764233 *  3.1679299    1.7947580 *  0.0000000    1.7845345 *
  25 H       3.4531953    4.0482224    1.7931745 *  1.7845345 *  0.0000000  
  26 H       3.3606229    3.7134698    2.3988277 *  3.6466396    2.9034429 *
  27 H       4.1261160    4.0243053    3.0546048    3.6264212    2.3708605 *
  28 H       3.6981660    3.1272459    3.6503045    4.1999073    3.6310095  
  29 H       3.0019516    2.3090911 *  3.6609650    2.4192560 *  3.0284944  
  30 H       3.5239168    2.2488755 *  4.1951224    3.6579807    3.6761141  
  31 H       3.9809800    3.4193574    3.6756819    3.0064909    2.4455978 *

               26 H         27 H         28 H         29 H         30 H     

   1 C       4.7518425    6.4264800    5.8864372    6.9018220    6.9914582  
   2 C       3.3220673    4.9682756    4.3929411    5.5731287    5.5377187  
   3 O       2.4309710 *  4.0834189    3.8745020    5.2674057    5.2309394  
   4 O       3.5690364    5.0444329    4.0680454    5.1128714    4.9205078  
   5 C       2.8352157 *  4.0143641    2.7743881 *  4.1156912    3.5783123  
   6 C       4.1153951    5.0410800    3.4677719    4.6831390    3.8698349  
   7 C       4.3615854    4.7722611    3.0707093    4.4035035    3.1237091  
   8 O       5.5534682    5.8898590    4.1731929    5.3329898    4.0272479  
   9 O       3.6072755    3.6500802    2.0420853 *  3.5961967    2.0493584 *
  10 C       2.8372663 *  3.4887064    2.7407537 *  2.6726670 *  2.6531225 *
  11 N       2.1208370 *  2.1090801 *  2.1010955 *  2.1260495 *  2.1011719 *
  12 C       2.6242875 *  2.6556470 *  3.3737017    2.6747105 *  3.3881605  
  13 C       1.0885419 *  1.0922562 *  1.0927539 *  3.3905689    2.6462981 *
  14 C       3.3839247    2.5985946 *  2.6480464 *  1.0923417 *  1.0942979 *
  15 H       5.4575813    7.0350130    6.4208991    6.9681663    7.2060496  
  16 H       5.0073758    6.6460441    6.3837629    7.3176979    7.5421168  
  17 H       5.1655028    6.9174187    6.2059198    7.6524218    7.5249707  
  18 H       2.1236748 *  3.4677385    2.1740266 *  4.5084556    3.7048845  
  19 H       4.9224454    5.7901134    4.3432723    4.7578274    4.2553472  
  20 H       4.5857005    5.7004423    4.0608379    5.7484623    4.8409287  
  21 H       3.3606229    4.1261160    3.6981660    3.0019516    3.5239168  
  22 H       3.7134698    4.0243053    3.1272459    2.3090911 *  2.2488755 *
  23 H       2.3988277 *  3.0546048    3.6503045    3.6609650    4.1951224  
  24 H       3.6466396    3.6264212    4.1999073    2.4192560 *  3.6579807  
  25 H       2.9034429 *  2.3708605 *  3.6310095    3.0284944    3.6761141  
  26 H       0.0000000    1.7894857 *  1.8177365 *  4.2127521    3.6491249  
  27 H       1.7894857 *  0.0000000    1.8084236 *  3.5885590    2.9467746 *
  28 H       1.8177365 *  1.8084236 *  0.0000000    3.6482210    2.3805662 *
  29 H       4.2127521    3.5885590    3.6482210    0.0000000    1.8068262 *
  30 H       3.6491249    2.9467746 *  2.3805662 *  1.8068262 *  0.0000000  
  31 H       3.6067527    2.3133942 *  2.9821069 *  1.7871448 *  1.8143386 *

               31 H     

   1 C       7.4257236  
   2 C       5.9806051  
   3 O       5.3583493  
   4 O       5.7403179  
   5 C       4.6003738  
   6 C       5.3284229  
   7 C       4.8204387  
   8 O       5.8046959  
   9 O       3.6730110  
  10 C       3.4327451  
  11 N       2.1264157 *
  12 C       2.6807098 *
  13 C       2.6322438 *
  14 C       1.0922465 *
  15 H       7.7391498  
  16 H       7.7354567  
  17 H       8.0917626  
  18 H       4.5678154  
  19 H       5.7353687  
  20 H       6.2740447  
  21 H       3.9809800  
  22 H       3.4193574  
  23 H       3.6756819  
  24 H       3.0064909  
  25 H       2.4455978 *
  26 H       3.6067527  
  27 H       2.3133942 *
  28 H       2.9821069 *
  29 H       1.7871448 *
  30 H       1.8143386 *
  31 H       0.0000000  

  * ... LESS THAN  3.000


     ATOMIC BASIS SET
     ----------------
 THE CONTRACTED PRIMITIVE FUNCTIONS HAVE BEEN UNNORMALIZED
 THE CONTRACTED BASIS FUNCTIONS ARE NOW NORMALIZED TO UNITY

  SHELL TYPE  PRIMITIVE        EXPONENT          CONTRACTION COEFFICIENT(S)

 C         

      1   S       1          3047.5248800    0.001834737132
      1   S       2           457.3695180    0.014037322813
      1   S       3           103.9486850    0.068842622264
      1   S       4            29.2101553    0.232184443216
      1   S       5             9.2866630    0.467941348435
      1   S       6             3.1639270    0.362311985337

      2   L       7             7.8682723   -0.119332419775    0.068999066591
      2   L       8             1.8812885   -0.160854151696    0.316423960957
      2   L       9             0.5442493    1.143456437840    0.744308290898

      3   L      10             0.1687145    1.000000000000    1.000000000000

      4   D      11             0.8000000    1.000000000000

 C         

      5   S      12          3047.5248800    0.001834737132
      5   S      13           457.3695180    0.014037322813
      5   S      14           103.9486850    0.068842622264
      5   S      15            29.2101553    0.232184443216
      5   S      16             9.2866630    0.467941348435
      5   S      17             3.1639270    0.362311985337

      6   L      18             7.8682723   -0.119332419775    0.068999066591
      6   L      19             1.8812885   -0.160854151696    0.316423960957
      6   L      20             0.5442493    1.143456437840    0.744308290898

      7   L      21             0.1687145    1.000000000000    1.000000000000

      8   D      22             0.8000000    1.000000000000

 O         

      9   S      23          5484.6716600    0.001831074430
      9   S      24           825.2349460    0.013950172200
      9   S      25           188.0469580    0.068445078098
      9   S      26            52.9645000    0.232714335992
      9   S      27            16.8975704    0.470192897984
      9   S      28             5.7996353    0.358520852987

     10   L      29            15.5396162   -0.110777549525    0.070874268231
     10   L      30             3.5999336   -0.148026262701    0.339752839147
     10   L      31             1.0137618    1.130767015354    0.727158577316

     11   L      32             0.2700058    1.000000000000    1.000000000000

     12   D      33             0.8000000    1.000000000000

 O         

     13   S      34          5484.6716600    0.001831074430
     13   S      35           825.2349460    0.013950172200
     13   S      36           188.0469580    0.068445078098
     13   S      37            52.9645000    0.232714335992
     13   S      38            16.8975704    0.470192897984
     13   S      39             5.7996353    0.358520852987

     14   L      40            15.5396162   -0.110777549525    0.070874268231
     14   L      41             3.5999336   -0.148026262701    0.339752839147
     14   L      42             1.0137618    1.130767015354    0.727158577316

     15   L      43             0.2700058    1.000000000000    1.000000000000

     16   D      44             0.8000000    1.000000000000

 C         

     17   S      45          3047.5248800    0.001834737132
     17   S      46           457.3695180    0.014037322813
     17   S      47           103.9486850    0.068842622264
     17   S      48            29.2101553    0.232184443216
     17   S      49             9.2866630    0.467941348435
     17   S      50             3.1639270    0.362311985337

     18   L      51             7.8682723   -0.119332419775    0.068999066591
     18   L      52             1.8812885   -0.160854151696    0.316423960957
     18   L      53             0.5442493    1.143456437840    0.744308290898

     19   L      54             0.1687145    1.000000000000    1.000000000000

     20   D      55             0.8000000    1.000000000000

 C         

     21   S      56          3047.5248800    0.001834737132
     21   S      57           457.3695180    0.014037322813
     21   S      58           103.9486850    0.068842622264
     21   S      59            29.2101553    0.232184443216
     21   S      60             9.2866630    0.467941348435
     21   S      61             3.1639270    0.362311985337

     22   L      62             7.8682723   -0.119332419775    0.068999066591
     22   L      63             1.8812885   -0.160854151696    0.316423960957
     22   L      64             0.5442493    1.143456437840    0.744308290898

     23   L      65             0.1687145    1.000000000000    1.000000000000

     24   D      66             0.8000000    1.000000000000

 C         

     25   S      67          3047.5248800    0.001834737132
     25   S      68           457.3695180    0.014037322813
     25   S      69           103.9486850    0.068842622264
     25   S      70            29.2101553    0.232184443216
     25   S      71             9.2866630    0.467941348435
     25   S      72             3.1639270    0.362311985337

     26   L      73             7.8682723   -0.119332419775    0.068999066591
     26   L      74             1.8812885   -0.160854151696    0.316423960957
     26   L      75             0.5442493    1.143456437840    0.744308290898

     27   L      76             0.1687145    1.000000000000    1.000000000000

     28   D      77             0.8000000    1.000000000000

 O         

     29   S      78          5484.6716600    0.001831074430
     29   S      79           825.2349460    0.013950172200
     29   S      80           188.0469580    0.068445078098
     29   S      81            52.9645000    0.232714335992
     29   S      82            16.8975704    0.470192897984
     29   S      83             5.7996353    0.358520852987

     30   L      84            15.5396162   -0.110777549525    0.070874268231
     30   L      85             3.5999336   -0.148026262701    0.339752839147
     30   L      86             1.0137618    1.130767015354    0.727158577316

     31   L      87             0.2700058    1.000000000000    1.000000000000

     32   D      88             0.8000000    1.000000000000

 O         

     33   S      89          5484.6716600    0.001831074430
     33   S      90           825.2349460    0.013950172200
     33   S      91           188.0469580    0.068445078098
     33   S      92            52.9645000    0.232714335992
     33   S      93            16.8975704    0.470192897984
     33   S      94             5.7996353    0.358520852987

     34   L      95            15.5396162   -0.110777549525    0.070874268231
     34   L      96             3.5999336   -0.148026262701    0.339752839147
     34   L      97             1.0137618    1.130767015354    0.727158577316

     35   L      98             0.2700058    1.000000000000    1.000000000000

     36   D      99             0.8000000    1.000000000000

 C         

     37   S     100          3047.5248800    0.001834737132
     37   S     101           457.3695180    0.014037322813
     37   S     102           103.9486850    0.068842622264
     37   S     103            29.2101553    0.232184443216
     37   S     104             9.2866630    0.467941348435
     37   S     105             3.1639270    0.362311985337

     38   L     106             7.8682723   -0.119332419775    0.068999066591
     38   L     107             1.8812885   -0.160854151696    0.316423960957
     38   L     108             0.5442493    1.143456437840    0.744308290898

     39   L     109             0.1687145    1.000000000000    1.000000000000

     40   D     110             0.8000000    1.000000000000

 N         

     41   S     111          4173.5114600    0.001834772160
     41   S     112           627.4579110    0.013994627002
     41   S     113           142.9020930    0.068586551812
     41   S     114            40.2343293    0.232240873040
     41   S     115            12.8202129    0.469069948082
     41   S     116             4.3904370    0.360455199063

     42   L     117            11.6263619   -0.114961181702    0.067579743878
     42   L     118             2.7162798   -0.169117478561    0.323907295893
     42   L     119             0.7722184    1.145851947027    0.740895139755

     43   L     120             0.2120315    1.000000000000    1.000000000000

     44   D     121             0.8000000    1.000000000000

 C         

     45   S     122          3047.5248800    0.001834737132
     45   S     123           457.3695180    0.014037322813
     45   S     124           103.9486850    0.068842622264
     45   S     125            29.2101553    0.232184443216
     45   S     126             9.2866630    0.467941348435
     45   S     127             3.1639270    0.362311985337

     46   L     128             7.8682723   -0.119332419775    0.068999066591
     46   L     129             1.8812885   -0.160854151696    0.316423960957
     46   L     130             0.5442493    1.143456437840    0.744308290898

     47   L     131             0.1687145    1.000000000000    1.000000000000

     48   D     132             0.8000000    1.000000000000

 C         

     49   S     133          3047.5248800    0.001834737132
     49   S     134           457.3695180    0.014037322813
     49   S     135           103.9486850    0.068842622264
     49   S     136            29.2101553    0.232184443216
     49   S     137             9.2866630    0.467941348435
     49   S     138             3.1639270    0.362311985337

     50   L     139             7.8682723   -0.119332419775    0.068999066591
     50   L     140             1.8812885   -0.160854151696    0.316423960957
     50   L     141             0.5442493    1.143456437840    0.744308290898

     51   L     142             0.1687145    1.000000000000    1.000000000000

     52   D     143             0.8000000    1.000000000000

 C         

     53   S     144          3047.5248800    0.001834737132
     53   S     145           457.3695180    0.014037322813
     53   S     146           103.9486850    0.068842622264
     53   S     147            29.2101553    0.232184443216
     53   S     148             9.2866630    0.467941348435
     53   S     149             3.1639270    0.362311985337

     54   L     150             7.8682723   -0.119332419775    0.068999066591
     54   L     151             1.8812885   -0.160854151696    0.316423960957
     54   L     152             0.5442493    1.143456437840    0.744308290898

     55   L     153             0.1687145    1.000000000000    1.000000000000

     56   D     154             0.8000000    1.000000000000

 H         

     57   S     155            18.7311370    0.033494604338
     57   S     156             2.8253944    0.234726953484
     57   S     157             0.6401217    0.813757326146

     58   S     158             0.1612778    1.000000000000

 H         

     59   S     159            18.7311370    0.033494604338
     59   S     160             2.8253944    0.234726953484
     59   S     161             0.6401217    0.813757326146

     60   S     162             0.1612778    1.000000000000

 H         

     61   S     163            18.7311370    0.033494604338
     61   S     164             2.8253944    0.234726953484
     61   S     165             0.6401217    0.813757326146

     62   S     166             0.1612778    1.000000000000

 H         

     63   S     167            18.7311370    0.033494604338
     63   S     168             2.8253944    0.234726953484
     63   S     169             0.6401217    0.813757326146

     64   S     170             0.1612778    1.000000000000

 H         

     65   S     171            18.7311370    0.033494604338
     65   S     172             2.8253944    0.234726953484
     65   S     173             0.6401217    0.813757326146

     66   S     174             0.1612778    1.000000000000

 H         

     67   S     175            18.7311370    0.033494604338
     67   S     176             2.8253944    0.234726953484
     67   S     177             0.6401217    0.813757326146

     68   S     178             0.1612778    1.000000000000

 H         

     69   S     179            18.7311370    0.033494604338
     69   S     180             2.8253944    0.234726953484
     69   S     181             0.6401217    0.813757326146

     70   S     182             0.1612778    1.000000000000

 H         

     71   S     183            18.7311370    0.033494604338
     71   S     184             2.8253944    0.234726953484
     71   S     185             0.6401217    0.813757326146

     72   S     186             0.1612778    1.000000000000

 H         

     73   S     187            18.7311370    0.033494604338
     73   S     188             2.8253944    0.234726953484
     73   S     189             0.6401217    0.813757326146

     74   S     190             0.1612778    1.000000000000

 H         

     75   S     191            18.7311370    0.033494604338
     75   S     192             2.8253944    0.234726953484
     75   S     193             0.6401217    0.813757326146

     76   S     194             0.1612778    1.000000000000

 H         

     77   S     195            18.7311370    0.033494604338
     77   S     196             2.8253944    0.234726953484
     77   S     197             0.6401217    0.813757326146

     78   S     198             0.1612778    1.000000000000

 H         

     79   S     199            18.7311370    0.033494604338
     79   S     200             2.8253944    0.234726953484
     79   S     201             0.6401217    0.813757326146

     80   S     202             0.1612778    1.000000000000

 H         

     81   S     203            18.7311370    0.033494604338
     81   S     204             2.8253944    0.234726953484
     81   S     205             0.6401217    0.813757326146

     82   S     206             0.1612778    1.000000000000

 H         

     83   S     207            18.7311370    0.033494604338
     83   S     208             2.8253944    0.234726953484
     83   S     209             0.6401217    0.813757326146

     84   S     210             0.1612778    1.000000000000

 H         

     85   S     211            18.7311370    0.033494604338
     85   S     212             2.8253944    0.234726953484
     85   S     213             0.6401217    0.813757326146

     86   S     214             0.1612778    1.000000000000

 H         

     87   S     215            18.7311370    0.033494604338
     87   S     216             2.8253944    0.234726953484
     87   S     217             0.6401217    0.813757326146

     88   S     218             0.1612778    1.000000000000

 H         

     89   S     219            18.7311370    0.033494604338
     89   S     220             2.8253944    0.234726953484
     89   S     221             0.6401217    0.813757326146

     90   S     222             0.1612778    1.000000000000

 TOTAL NUMBER OF BASIS SET SHELLS             =   90
 NUMBER OF CARTESIAN GAUSSIAN BASIS FUNCTIONS =  244
 NUMBER OF ELECTRONS                          =  110
 CHARGE OF MOLECULE                           =    0
 SPIN MULTIPLICITY                            =    1
 NUMBER OF OCCUPIED ORBITALS (ALPHA)          =   55
 NUMBER OF OCCUPIED ORBITALS (BETA )          =   55
 TOTAL NUMBER OF ATOMS                        =   31
 THE NUCLEAR REPULSION ENERGY IS     1011.2072525574

     LEBEDEV GRID-BASED DFT OPTIONS
     ------------------------------
     DFTTYP=B3LYPV1R
     NRAD  =      96     NLEB  =     302
     NRAD0 =      24     NLEB0 =     110
     SWOFF =    5.00E-03 (PURE SCF -> DFT)
     SWITCH=    3.00E-04 (COARSE -> TIGHT GRID)
     THRESH=    0.00E+00 GTHRE=    1.00E+00

 GRIMME'S EMPIRICAL DISPERSION CORRECTION= F

     $CONTRL OPTIONS
     ---------------
 SCFTYP=RHF          RUNTYP=OPTIMIZE     EXETYP=RUN     
 MPLEVL=       0     CITYP =NONE         CCTYP =NONE         VBTYP =NONE    
 DFTTYP=B3LYPV1R     TDDFT =NONE    
 MULT  =       1     ICHARG=       0     NZVAR =       0     COORD =UNIQUE  
 PP    =NONE         RELWFN=NONE         LOCAL =NONE         NUMGRD=       F
 ISPHER=      -1     NOSYM =       0     MAXIT =      30     UNITS =ANGS    
 PLTORB=       F     MOLPLT=       F     AIMPAC=       F     FRIEND=        
 NPRINT=       7     IREST =       0     GEOM  =INPUT   
 NORMF =       0     NORMP =       0     ITOL  =      20     ICUT  =       9
 INTTYP=BEST         GRDTYP=BEST         QMTTOL= 1.0E-06

     $SYSTEM OPTIONS
     ---------------
  REPLICATED MEMORY=   200000000 WORDS (ON EVERY NODE).
 DISTRIBUTED MEMDDI=           0 MILLION WORDS IN AGGREGATE,
 MEMDDI DISTRIBUTED OVER   2 PROCESSORS IS           0 WORDS/PROCESSOR.
 TOTAL MEMORY REQUESTED ON EACH PROCESSOR=   200000000 WORDS.
 TIMLIM= 99999999999.00 MINUTES, OR ********* DAYS.
 PARALL= T  BALTYP=  DLB     KDIAG=    0  COREFL= F
 MXSEQ2=     300 MXSEQ3=     150

          ----------------
          PROPERTIES INPUT
          ----------------

     MOMENTS            FIELD           POTENTIAL          DENSITY
 IEMOM =       1   IEFLD =       0   IEPOT =       0   IEDEN =       0
 WHERE =COMASS     WHERE =NUCLEI     WHERE =NUCLEI     WHERE =NUCLEI  
 OUTPUT=BOTH       OUTPUT=BOTH       OUTPUT=BOTH       OUTPUT=BOTH    
 IEMINT=       0   IEFINT=       0                     IEDINT=       0
                                                       MORB  =       0
          EXTRAPOLATION IN EFFECT
          DIIS IN EFFECT
 ORBITAL PRINTING OPTION: NPREO=     1   244     2     1

     -------------------------------
     INTEGRAL TRANSFORMATION OPTIONS
     -------------------------------
     NWORD  =            0
     CUTOFF = 1.0E-09     MPTRAN =       0
     DIRTRF =       T     AOINTS =DUP     

          ----------------------
          INTEGRAL INPUT OPTIONS
          ----------------------
 NOPK  =       1 NORDER=       0 SCHWRZ=       T

     ------------------------------------------
     THE POINT GROUP IS C1 , NAXIS= 0, ORDER= 1
     ------------------------------------------

     DIMENSIONS OF THE SYMMETRY SUBSPACES ARE
 A   =  244

 ..... DONE SETTING UP THE RUN .....
 CPU     0: STEP CPU TIME=     0.08 TOTAL CPU TIME=        0.1 (    0.0 MIN)
 TOTAL WALL CLOCK TIME=        0.1 SECONDS, CPU UTILIZATION IS  69.23%


          -----------------------------
          STATIONARY POINT LOCATION RUN
          -----------------------------

 OBTAINING INITIAL HESSIAN, HESS=GUESS   
 CARTESIAN COORDINATE OPTIMIZATION USING BADGER'S RULE FORCE CONSTANT GUESS

          PARAMETERS CONTROLLING GEOMETRY SEARCH ARE
          METHOD =QA                  UPHESS =BFGS    
          NNEG   =         0          NFRZ   =         0
          NSTEP  =         3          IFOLOW =         1
          HESS   =GUESS               RESTAR =         F
          IHREP  =         0          HSSEND =         F
          NPRT   =         0          NPUN   =         0
          OPTTOL = 5.000E-04          RMIN   = 1.500E-03
          RMAX   = 1.000E-01          RLIM   = 7.000E-02
          DXMAX  = 3.000E-01          PURIFY =         F
          MOVIE  =         F          TRUPD  =         T
          TRMAX  = 5.000E-01          TRMIN  = 5.000E-02
          ITBMAT =         5          STPT   =         F
          STSTEP = 1.000E-02          PROJCT=          T

 BEGINNING GEOMETRY SEARCH POINT NSERCH=   0 ...

 COORDINATES OF ALL ATOMS ARE (ANGS)
   ATOM   CHARGE       X              Y              Z
 ------------------------------------------------------------
 C           6.0   9.0222826408   4.8372353216  -3.0906412175
 C           6.0   8.6952767673   3.4064427818  -3.4441728955
 O           8.0   8.5944177792   2.9823790150  -4.5846751688
 O           8.0   8.5455819883   2.6499509458  -2.3475135139
 C           6.0   8.3698120938   1.2020990569  -2.5349048241
 C           6.0   8.6647577266   0.5294024869  -1.2008750252
 C           6.0   8.5550814701  -1.0368279476  -1.2959521601
 O           8.0   8.8500010374  -1.6664995209  -0.2802564843
 O           8.0   8.1513767237  -1.4704289986  -2.4316450854
 C           6.0   6.9244929853   0.9274760805  -3.0031064451
 N           7.0   6.6935901536   0.2395790177  -4.3814679324
 C           6.0   5.9817332959   1.1956031490  -5.2951096112
 C           6.0   7.9625091247  -0.2179760820  -5.0647032529
 C           6.0   5.8313688172  -0.9793434047  -4.1489445426
 H           1.0   8.4079571540   5.1812425343  -2.2542518161
 H           1.0   8.8762215233   5.4746596917  -3.9636789026
 H           1.0  10.0700897719   4.8983856667  -2.7747484947
 H           1.0   9.1018155847   0.8891549701  -3.2738878931
 H           1.0   7.9732992070   0.8930986042  -0.4295524137
 H           1.0   9.6714704150   0.8010411684  -0.8678508667
 H           1.0   6.3755486669   1.8698523471  -3.0533938538
 H           1.0   6.4467057580   0.2766928271  -2.2776363825
 H           1.0   6.6141424450   2.0731481853  -5.4298103589
 H           1.0   5.0269938690   1.4739054927  -4.8441280833
 H           1.0   5.8044325277   0.7006366574  -6.2520370851
 H           1.0   8.5514149899   0.6633274336  -5.3125285401
 H           1.0   7.6648057377  -0.7427464838  -5.9752043440
 H           1.0   8.4691252541  -0.8836680799  -4.3616346623
 H           1.0   4.8879881892  -0.6551975436  -3.7037785183
 H           1.0   6.3916494343  -1.6293260399  -3.4699039647
 H           1.0   5.6406239372  -1.4570372518  -5.1124939404

          ********************
          1 ELECTRON INTEGRALS
          ********************
 ...... END OF ONE-ELECTRON INTEGRALS ......
 CPU     0: STEP CPU TIME=     0.09 TOTAL CPU TIME=        0.2 (    0.0 MIN)
 TOTAL WALL CLOCK TIME=        0.2 SECONDS, CPU UTILIZATION IS  78.26%

          -------------
          GUESS OPTIONS
          -------------
          GUESS =HUCKEL            NORB  =       0          NORDER=       0
          MIX   =       F          PRTMO =       F          PUNMO =       F
          TOLZ  = 1.0E-08          TOLE  = 1.0E-05
          SYMDEN=       F          PURIFY=       F

 INITIAL GUESS ORBITALS GENERATED BY HUCKEL   ROUTINE.
 HUCKEL GUESS REQUIRES    484243 WORDS.

 SYMMETRIES FOR INITIAL GUESS ORBITALS FOLLOW.   BOTH SET(S).
    55 ORBITALS ARE OCCUPIED (   14 CORE ORBITALS).
    15=A       16=A       17=A       18=A       19=A       20=A       21=A   
    22=A       23=A       24=A       25=A       26=A       27=A       28=A   
    29=A       30=A       31=A       32=A       33=A       34=A       35=A   
    36=A       37=A       38=A       39=A       40=A       41=A       42=A   
    43=A       44=A       45=A       46=A       47=A       48=A       49=A   
    50=A       51=A       52=A       53=A       54=A       55=A       56=A   
    57=A       58=A       59=A       60=A       61=A       62=A       63=A   
    64=A       65=A   
 ...... END OF INITIAL ORBITAL SELECTION ......
 CPU     0: STEP CPU TIME=     0.24 TOTAL CPU TIME=        0.4 (    0.0 MIN)
 TOTAL WALL CLOCK TIME=        0.5 SECONDS, CPU UTILIZATION IS  87.50%

                    ----------------------
                    AO INTEGRAL TECHNOLOGY
                    ----------------------
     S,P,L SHELL ROTATED AXIS INTEGRALS, REPROGRAMMED BY
        KAZUYA ISHIMURA (IMS) AND JOSE SIERRA (SYNSTAR).
     S,P,D,L SHELL ROTATED AXIS INTEGRALS PROGRAMMED BY
        KAZUYA ISHIMURA (INSTITUTE FOR MOLECULAR SCIENCE).
     S,P,D,F,G SHELL TO TOTAL QUARTET ANGULAR MOMENTUM SUM 5,
        ERIC PROGRAM BY GRAHAM FLETCHER (ELORET AND NASA ADVANCED
        SUPERCOMPUTING DIVISION, AMES RESEARCH CENTER).
     S,P,D,F,G,L SHELL GENERAL RYS QUADRATURE PROGRAMMED BY
        MICHEL DUPUIS (PACIFIC NORTHWEST NATIONAL LABORATORY).

          --------------------
          2 ELECTRON INTEGRALS
          --------------------

 DIRECT SCF METHOD SKIPS INTEGRAL STORAGE ON DISK.
 DIRECT TRANSFORMATION SKIPS AO INTEGRAL STORAGE ON DISK.
  ...... END OF TWO-ELECTRON INTEGRALS .....
 CPU     0: STEP CPU TIME=     0.02 TOTAL CPU TIME=        0.4 (    0.0 MIN)
 TOTAL WALL CLOCK TIME=        0.5 SECONDS, CPU UTILIZATION IS  88.00%

          --------------------------
          R-B3LYPV1R SCF CALCULATION
          --------------------------

     NUCLEAR ENERGY =      1011.2072525574
     MAXIT =   30     NPUNCH=    2
     EXTRAP=T  DAMP=F  SHIFT=F  RSTRCT=F  DIIS=T  DEM=F  SOSCF=F
         DENSITY MATRIX CONVERGENCE THRESHOLD=  2.00E-05
     COARSE -> FINE DFT GRID SWITCH THRESHOLD=  3.00E-04 (SWITCH IN $DFT)
                   HF -> DFT SWITCH THRESHOLD=  5.00E-03 (SWOFF IN $DFT)
     MEMORY REQUIRED FOR RHF ITERS=   1492897 WORDS.

 DIRECT SCF CALCULATION, SCHWRZ=T   FDIFF=T,  DIRTHR=  0.00E+00 NITDIR=10
 SCHWARZ INEQUALITY OVERHEAD:     27483 INTEGRALS, T=        0.02

 DFT CODE IS SWITCHING FROM THE FINE GRID NRAD= 96,  NLEB=  302
                      TO THE COARSE GRID NRAD0= 24, NLEB0=  110

     EXCHANGE FUNCTIONAL   =B88&HFX   
     CORRELATION FUNCTIONAL=LYP88VWN1R
     DFT THRESHOLD         =.445E-08
     GRID CHANGE THRESHOLD =.300E-03
 FOR AN EULER-MACLAURIN QUADRATURE USING  96 RADIAL POINTS:
 SMALLEST GAUSSIAN PRIMITIVE EXPONENT=        0.1612777588 OF TYPE -S-
 ON ATOM NUMBER  15 HAS RADIAL NORMALIZATION=  1.000000
  LARGEST GAUSSIAN PRIMITIVE EXPONENT=     5484.6716600000 OF TYPE -S-
 ON ATOM NUMBER   3 HAS RADIAL NORMALIZATION=  1.000000
 DFT IS SWITCHED OFF, PERFORMING PURE SCF UNTIL SWOFF THRESHOLD IS REACHED.

                                                                                   NONZERO     BLOCKS
 ITER EX DEM     TOTAL ENERGY        E CHANGE  DENSITY CHANGE    DIIS ERROR      INTEGRALS    SKIPPED
          * * *   INITIATING DIIS PROCEDURE   * * *
   1  0  0     -702.2214589868  -702.2214589868   0.378486351   0.426888207      224991121    4398387
   2  1  0     -704.2173127212    -1.9958537344   0.205759907   0.093285906      225439722    4451366
   3  2  0     -704.4742797669    -0.2569670457   0.088533353   0.049946899      221937102    4630438
   4  3  0     -704.5633632070    -0.0890834401   0.018055441   0.006861957      215996681    4852118
   5  4  0     -704.5654624684    -0.0020992614   0.007123749   0.003172614      204947614    5134954
   6  5  0     -704.5658806594    -0.0004181911   0.002596460   0.001051742      196657712    5304577
 CONVERGED TO SWOFF, SO DFT CALCULATION IS NOW SWITCHED ON.
          * * *   INITIATING DIIS PROCEDURE   * * *
   7  6  0     -708.7128824964    -4.1470018370   0.165970085   0.094323612      225578829    4389283
   8  7  0     -708.7833683220    -0.0704858256   0.064164774   0.020352421      222347337    4617239
   9  8  0     -708.7774883171     0.0058800049   0.043100579   0.028174413      215605064    4830550
  10  9  0     -708.7972358527    -0.0197475356   0.013696566   0.005354598      211684800    4952158
  11 10  0     -708.7979739995    -0.0007381468   0.003394978   0.001575187      197646488    5272928
  12 11  0     -708.7980208183    -0.0000468189   0.000931417   0.000520370      184297572    5567121
  13 12  0     -708.7980266352    -0.0000058168   0.000210803   0.000114556      172851216    5761643
 DFT CODE IS SWITCHING BACK TO THE FINE GRID
          * * *   INITIATING DIIS PROCEDURE   * * *
  14 13  0     -708.8053440515    -0.0073174163   0.004960186   0.001475039      226040207    4354269
  15 14  0     -708.8054752234    -0.0001311719   0.003908594   0.000818005      199854670    5262606
  16 15  0     -708.8054636454     0.0000115780   0.002318582   0.001111220      185351231    5541690
  17 16  0     -708.8054905936    -0.0000269482   0.000612707   0.000348260      180033137    5654971
  18 17  0     -708.8054921972    -0.0000016036   0.000154132   0.000063469      164226390    5951863
  19 18  0     -708.8054922697    -0.0000000725   0.000045246   0.000026785      144009043    6295624
  20 19  0     -708.8054922789    -0.0000000092   0.000017724   0.000009108      131964688    6516770
  21 20  0     -708.8054922796    -0.0000000008   0.000007969   0.000005622      122203943    6671507

          -----------------
          DENSITY CONVERGED
          -----------------
     TIME TO FORM FOCK OPERATORS=     518.8 SECONDS (      24.7 SEC/ITER)
     FOCK TIME ON FIRST ITERATION=      16.2, LAST ITERATION=      35.8
     TIME TO SOLVE SCF EQUATIONS=       2.3 SECONDS (       0.1 SEC/ITER)

 FINAL R-B3LYPV1R ENERGY IS     -708.8054922796 AFTER  21 ITERATIONS
 DFT EXCHANGE + CORRELATION ENERGY =       -78.0526438685
 TOTAL ELECTRON NUMBER             =       110.0002068626

          ------------
          EIGENVECTORS
          ------------

                      1          2          3          4          5
                  -19.2044   -19.1575   -19.0395   -19.0268   -14.4856
                     A          A          A          A          A   
    1  C  1  S    0.000019   0.000011   0.000004   0.000004  -0.000001
    2  C  1  S    0.000181   0.000089   0.000020   0.000025  -0.000007
    3  C  1  X    0.000018   0.000011   0.000002   0.000001  -0.000000
    4  C  1  Y   -0.000057  -0.000014   0.000007   0.000005  -0.000002
    5  C  1  Z    0.000031   0.000012   0.000002   0.000003  -0.000002
    6  C  1  S   -0.000238  -0.000920  -0.000211  -0.000198   0.000058
    7  C  1  X   -0.000099   0.000055   0.000020   0.000023  -0.000006
    8  C  1  Y    0.000322   0.000633   0.000081   0.000086  -0.000024
    9  C  1  Z    0.000191  -0.000519   0.000022   0.000014  -0.000002
   10  C  1 XX    0.000034   0.000004   0.000005   0.000006  -0.000001
   11  C  1 YY   -0.000061  -0.000009  -0.000002  -0.000005   0.000001
   12  C  1 ZZ   -0.000028   0.000007   0.000004   0.000005  -0.000001
   13  C  1 XY   -0.000029  -0.000006  -0.000003  -0.000004   0.000001
   14  C  1 XZ   -0.000004   0.000017  -0.000001  -0.000000   0.000000
   15  C  1 YZ   -0.000003   0.000002  -0.000002  -0.000003   0.000002
   16  C  2  S    0.000017   0.000005  -0.000001   0.000004  -0.000003
   17  C  2  S    0.000377   0.000481   0.000003   0.000014  -0.000010
   18  C  2  X   -0.000041  -0.000000  -0.000002  -0.000003   0.000003
   19  C  2  Y   -0.000222  -0.000035  -0.000009  -0.000027   0.000013
   20  C  2  Z    0.000319  -0.000055  -0.000018   0.000001  -0.000002
   21  C  2  S   -0.001341  -0.002605   0.000001   0.000028  -0.000054
   22  C  2  X    0.000209   0.000424   0.000045   0.000028  -0.000012
   23  C  2  Y    0.000980   0.001568   0.000242   0.000204  -0.000044
   24  C  2  Z   -0.001849   0.003303   0.000033   0.000014  -0.000010
   25  C  2 XX   -0.000017  -0.000064   0.000004   0.000014  -0.000004
   26  C  2 YY    0.000006  -0.000142  -0.000003   0.000013  -0.000005
   27  C  2 ZZ    0.000210  -0.000640  -0.000021  -0.000008  -0.000008
   28  C  2 XY    0.000016  -0.000026  -0.000001   0.000002   0.000000
   29  C  2 XZ   -0.000007  -0.000081   0.000000   0.000001   0.000004
   30  C  2 YZ   -0.000011  -0.000293   0.000012   0.000005   0.000002
   31  O  3  S   -0.000065   0.992681   0.000003   0.000004   0.000001
   32  O  3  S    0.000179   0.025509   0.000005   0.000009  -0.000005
   33  O  3  X    0.000011   0.000113  -0.000002  -0.000002  -0.000006
   34  O  3  Y    0.000046   0.000391  -0.000001  -0.000002  -0.000005
   35  O  3  Z   -0.000031   0.001067   0.000006   0.000003   0.000001
   36  O  3  S   -0.000964   0.014824   0.000034  -0.000004   0.000009
   37  O  3  X   -0.000098  -0.000048   0.000006   0.000006   0.000015
   38  O  3  Y   -0.000418   0.000280  -0.000011  -0.000005   0.000014
   39  O  3  Z   -0.000181   0.001458   0.000011  -0.000000   0.000010
   40  O  3 XX    0.000131  -0.008342   0.000012   0.000015   0.000001
   41  O  3 YY    0.000069  -0.008274   0.000003   0.000004   0.000007
   42  O  3 ZZ   -0.000027  -0.007936   0.000009   0.000009   0.000008
   43  O  3 XY   -0.000015   0.000025  -0.000002  -0.000002  -0.000000
   44  O  3 XZ   -0.000010   0.000038  -0.000001   0.000001   0.000003
   45  O  3 YZ   -0.000031   0.000152   0.000003   0.000002   0.000002
   46  O  4  S    0.992660   0.000098   0.000006   0.000029  -0.000007
   47  O  4  S    0.025679   0.000008   0.000004   0.000128  -0.000029
   48  O  4  X   -0.000020   0.000015  -0.000003  -0.000005   0.000005
   49  O  4  Y   -0.000229   0.000074  -0.000013  -0.000014   0.000004
   50  O  4  Z   -0.000840   0.000026   0.000010  -0.000005   0.000009
   51  O  4  S    0.013735  -0.000076   0.000088  -0.000747   0.000120
   52  O  4  X    0.000067  -0.000157   0.000023   0.000061  -0.000030
   53  O  4  Y    0.000018  -0.000686   0.000016   0.000286  -0.000017
   54  O  4  Z   -0.000369  -0.000213  -0.000061   0.000031  -0.000064
   55  O  4 XX   -0.008330  -0.000017   0.000022   0.000081  -0.000025
   56  O  4 YY   -0.008418   0.000073   0.000002   0.000034  -0.000020
   57  O  4 ZZ   -0.008373  -0.000067   0.000023   0.000088  -0.000013
   58  O  4 XY   -0.000018   0.000025  -0.000004  -0.000012   0.000008
   59  O  4 XZ    0.000009  -0.000000  -0.000009  -0.000000   0.000002
   60  O  4 YZ   -0.000007   0.000000  -0.000010  -0.000010   0.000004
   61  C  5  S    0.000009   0.000013   0.000036   0.000019   0.000019
   62  C  5  S    0.000068   0.000080   0.000145   0.000064   0.000098
   63  C  5  X    0.000028  -0.000026  -0.000027  -0.000006  -0.000011
   64  C  5  Y    0.000315  -0.000041  -0.000045  -0.000076  -0.000013
   65  C  5  Z    0.000107  -0.000073  -0.000001   0.000020  -0.000026
   66  C  5  S   -0.001729  -0.000591  -0.001048   0.000225  -0.000411
   67  C  5  X   -0.000323   0.000205  -0.000174   0.000007   0.000138
   68  C  5  Y   -0.000760  -0.000352   0.000204   0.000933   0.000059
   69  C  5  Z   -0.000463   0.000216  -0.000581   0.000047   0.000255
   70  C  5 XX    0.000065   0.000011   0.000072   0.000033   0.000008
   71  C  5 YY    0.000423  -0.000059   0.000066   0.000055   0.000028
   72  C  5 ZZ    0.000072   0.000052   0.000031   0.000041   0.000021
   73  C  5 XY    0.000061  -0.000007   0.000019   0.000016  -0.000006
   74  C  5 XZ    0.000023  -0.000000  -0.000007   0.000012  -0.000006
   75  C  5 YZ    0.000100  -0.000052   0.000027   0.000047  -0.000017
   76  C  6  S   -0.000012   0.000008  -0.000009   0.000012  -0.000002
   77  C  6  S   -0.000002   0.000042   0.000021   0.000111  -0.000002
   78  C  6  X    0.000007   0.000003   0.000010   0.000008   0.000005
   79  C  6  Y    0.000100  -0.000005  -0.000025   0.000039   0.000008
   80  C  6  Z   -0.000028  -0.000003   0.000005   0.000030   0.000003
   81  C  6  S    0.001141  -0.000256   0.000463  -0.000404  -0.000063
   82  C  6  X   -0.000131  -0.000032  -0.000297   0.000150  -0.000024
   83  C  6  Y   -0.000672   0.000048   0.000629  -0.000064  -0.000058
   84  C  6  Z   -0.000248   0.000113  -0.000867   0.000304   0.000034
   85  C  6 XX   -0.000027   0.000016  -0.000015   0.000018  -0.000007
   86  C  6 YY   -0.000036   0.000005  -0.000103  -0.000052  -0.000006
   87  C  6 ZZ   -0.000023  -0.000006   0.000005  -0.000001  -0.000005
   88  C  6 XY    0.000003  -0.000005  -0.000005  -0.000014  -0.000004
   89  C  6 XZ    0.000001  -0.000004   0.000003  -0.000010   0.000002
   90  C  6 YZ    0.000028   0.000009  -0.000014  -0.000025   0.000003
   91  C  7  S    0.000029   0.000003   0.000019  -0.000016  -0.000006
   92  C  7  S    0.000126   0.000004   0.000538   0.000453  -0.000015
   93  C  7  X   -0.000005  -0.000002  -0.000104   0.000014   0.000003
   94  C  7  Y   -0.000002   0.000001  -0.000156  -0.000022   0.000002
   95  C  7  Z   -0.000009  -0.000004  -0.000323   0.000040   0.000009
   96  C  7  S   -0.000881   0.000121  -0.002211  -0.003215  -0.000052
   97  C  7  X   -0.000001   0.000036   0.000946  -0.001079  -0.000057
   98  C  7  Y   -0.000700   0.000018   0.000948   0.002036   0.000097
   99  C  7  Z    0.000070   0.000070   0.002604  -0.003605  -0.000172
  100  C  7 XX    0.000064   0.000005  -0.000064  -0.000120  -0.000009
  101  C  7 YY    0.000009   0.000008  -0.000010  -0.000261  -0.000015
  102  C  7 ZZ    0.000034   0.000011  -0.000257  -0.000650  -0.000023
  103  C  7 XY   -0.000001   0.000001  -0.000016   0.000120   0.000000
  104  C  7 XZ   -0.000013   0.000004  -0.000101  -0.000196  -0.000002
  105  C  7 YZ    0.000007  -0.000006  -0.000036   0.000412  -0.000006
  106  O  8  S    0.000007   0.000003  -0.000226   0.992701  -0.000009
  107  O  8  S    0.000036   0.000019   0.000144   0.025478  -0.000038
  108  O  8  X   -0.000002   0.000000   0.000005  -0.000256  -0.000000
  109  O  8  Y   -0.000008   0.000001   0.000064   0.000549  -0.000000
  110  O  8  Z   -0.000009   0.000002  -0.000001  -0.000869   0.000002
  111  O  8  S   -0.000181  -0.000125  -0.000805   0.015133   0.000246
  112  O  8  X    0.000023   0.000005  -0.000063  -0.000466  -0.000013
  113  O  8  Y    0.000080  -0.000033  -0.000361   0.001060   0.000034
  114  O  8  Z    0.000073   0.000027  -0.000095  -0.001644  -0.000057
  115  O  8 XX    0.000035   0.000014   0.000068  -0.008248  -0.000024
  116  O  8 YY    0.000034   0.000010   0.000098  -0.008111  -0.000023
  117  O  8 ZZ    0.000011   0.000010   0.000036  -0.007895  -0.000019
  118  O  8 XY   -0.000003   0.000002  -0.000013  -0.000081  -0.000001
  119  O  8 XZ   -0.000010  -0.000000  -0.000017   0.000127   0.000002
  120  O  8 YZ   -0.000009   0.000006  -0.000043  -0.000287  -0.000006
  121  O  9  S    0.000008   0.000001   0.992675   0.000285   0.000014
  122  O  9  S    0.000040   0.000009   0.025500   0.000180   0.000044
  123  O  9  X    0.000004  -0.000001   0.000292   0.000014  -0.000013
  124  O  9  Y    0.000004   0.000005   0.000291   0.000069   0.000020
  125  O  9  Z    0.000009   0.000001   0.000781   0.000022  -0.000014
  126  O  9  S   -0.000111  -0.000020   0.014130  -0.001169  -0.000227
  127  O  9  X   -0.000017   0.000003   0.000109  -0.000035   0.000042
  128  O  9  Y    0.000054  -0.000020   0.000565  -0.000492  -0.000080
  129  O  9  Z   -0.000048  -0.000012   0.000577   0.000001   0.000048
  130  O  9 XX    0.000051   0.000008  -0.008325   0.000065   0.000047
  131  O  9 YY    0.000028   0.000003  -0.008316   0.000111   0.000040
  132  O  9 ZZ    0.000022   0.000009  -0.008232   0.000088   0.000057
  133  O  9 XY    0.000000  -0.000001   0.000017   0.000026   0.000010
  134  O  9 XZ   -0.000014  -0.000004   0.000052   0.000017  -0.000001
  135  O  9 YZ    0.000015  -0.000003   0.000036   0.000068   0.000008
  136  C 10  S    0.000017   0.000004   0.000043   0.000012  -0.000019
  137  C 10  S    0.000121  -0.000037   0.000147   0.000046  -0.000114
  138  C 10  X    0.000044   0.000025   0.000069   0.000034  -0.000020
  139  C 10  Y    0.000013   0.000032  -0.000128  -0.000032  -0.000088
  140  C 10  Z    0.000039  -0.000027   0.000010   0.000022  -0.000194
  141  C 10  S   -0.000186   0.000167  -0.000611  -0.000074   0.000152
  142  C 10  X   -0.000242   0.000235  -0.000190  -0.000115   0.000119
  143  C 10  Y    0.000014   0.000062   0.000506  -0.000020   0.000002
  144  C 10  Z   -0.000103   0.000060   0.000073  -0.000013  -0.000003
  145  C 10 XX   -0.000014   0.000042   0.000084   0.000026  -0.000013
  146  C 10 YY   -0.000030   0.000028   0.000097  -0.000001   0.000025
  147  C 10 ZZ    0.000062   0.000030   0.000065   0.000030   0.000230
  148  C 10 XY   -0.000016   0.000030  -0.000024  -0.000034   0.000029
  149  C 10 XZ   -0.000013  -0.000017   0.000003  -0.000006   0.000048
  150  C 10 YZ   -0.000013  -0.000015   0.000017  -0.000008   0.000153
  151  N 11  S   -0.000004  -0.000001   0.000004  -0.000004   0.992730
  152  N 11  S   -0.000005  -0.000026  -0.000045  -0.000003   0.034610
  153  N 11  X   -0.000019   0.000021   0.000042  -0.000019  -0.000089
  154  N 11  Y   -0.000012   0.000024  -0.000056   0.000015   0.000025
  155  N 11  Z    0.000002  -0.000010   0.000050  -0.000018  -0.000081
  156  N 11  S    0.000039   0.000068   0.000329  -0.000044   0.003591
  157  N 11  X    0.000158  -0.000123  -0.000098   0.000031   0.000046
  158  N 11  Y    0.000003  -0.000076   0.000258  -0.000088  -0.000039
  159  N 11  Z   -0.000050   0.000060  -0.000025   0.000120   0.000026
  160  N 11 XX   -0.000002   0.000016   0.000045  -0.000017  -0.008327
  161  N 11 YY   -0.000022   0.000020   0.000022  -0.000020  -0.008333
  162  N 11 ZZ   -0.000013  -0.000010   0.000057  -0.000009  -0.008338
  163  N 11 XY   -0.000006   0.000008  -0.000013   0.000011   0.000002
  164  N 11 XZ   -0.000004  -0.000001   0.000029  -0.000002  -0.000001
  165  N 11 YZ   -0.000008  -0.000005  -0.000036   0.000010   0.000001
  166  C 12  S   -0.000003  -0.000019  -0.000004  -0.000000  -0.000005
  167  C 12  S   -0.000010  -0.000090   0.000009  -0.000013   0.000016
  168  C 12  X   -0.000008   0.000017  -0.000028   0.000011   0.000140
  169  C 12  Y   -0.000011  -0.000038   0.000049  -0.000009  -0.000184
  170  C 12  Z   -0.000014   0.000038  -0.000028   0.000012   0.000180
  171  C 12  S    0.000048   0.000752  -0.000204   0.000107  -0.000173
  172  C 12  X    0.000010   0.000178  -0.000002   0.000011  -0.000074
  173  C 12  Y    0.000044   0.000416  -0.000107  -0.000051   0.000056
  174  C 12  Z    0.000076  -0.000174  -0.000095   0.000020  -0.000088
  175  C 12 XX   -0.000007  -0.000010  -0.000021   0.000003   0.000038
  176  C 12 YY   -0.000002  -0.000020  -0.000015   0.000010   0.000093
  177  C 12 ZZ   -0.000006  -0.000033  -0.000030   0.000007   0.000081
  178  C 12 XY    0.000005   0.000030   0.000010  -0.000008  -0.000098
  179  C 12 XZ   -0.000005  -0.000006  -0.000019   0.000007   0.000090
  180  C 12 YZ   -0.000008   0.000016   0.000026  -0.000007  -0.000125
  181  C 13  S    0.000002  -0.000022  -0.000016  -0.000016  -0.000012
  182  C 13  S    0.000017  -0.000092  -0.000122  -0.000050  -0.000030
  183  C 13  X    0.000011  -0.000041  -0.000042  -0.000002  -0.000230
  184  C 13  Y   -0.000001   0.000001   0.000009  -0.000005   0.000076
  185  C 13  Z    0.000006   0.000045   0.000065  -0.000046   0.000108
  186  C 13  S   -0.000073   0.000803   0.000966   0.000233  -0.000163
  187  C 13  X    0.000048   0.000250   0.000341   0.000019   0.000065
  188  C 13  Y   -0.000052   0.000284  -0.000375   0.000073   0.000010
  189  C 13  Z   -0.000105  -0.000206   0.000159   0.000189  -0.000019
  190  C 13 XX   -0.000005  -0.000046  -0.000015  -0.000028   0.000183
  191  C 13 YY   -0.000000  -0.000007   0.000013  -0.000033  -0.000009
  192  C 13 ZZ   -0.000005  -0.000035   0.000024  -0.000032   0.000020
  193  C 13 XY    0.000008   0.000015  -0.000003  -0.000008  -0.000091
  194  C 13 XZ    0.000005   0.000008   0.000037  -0.000001  -0.000133
  195  C 13 YZ   -0.000003   0.000005  -0.000027  -0.000002   0.000046
  196  C 14  S    0.000000  -0.000008  -0.000019   0.000002  -0.000006
  197  C 14  S   -0.000004  -0.000023  -0.000139   0.000012  -0.000002
  198  C 14  X    0.000004  -0.000019   0.000056  -0.000006   0.000158
  199  C 14  Y    0.000014  -0.000030   0.000044  -0.000000   0.000225
  200  C 14  Z    0.000009   0.000015   0.000009  -0.000004  -0.000043
  201  C 14  S    0.000057  -0.000001   0.001008  -0.000062  -0.000236
  202  C 14  X   -0.000007   0.000039   0.000166  -0.000034  -0.000090
  203  C 14  Y    0.000010   0.000049  -0.000423  -0.000032  -0.000067
  204  C 14  Z   -0.000068  -0.000080   0.000332  -0.000001  -0.000017
  205  C 14 XX    0.000000  -0.000019  -0.000000  -0.000010   0.000069
  206  C 14 YY    0.000010  -0.000025  -0.000012   0.000003   0.000173
  207  C 14 ZZ    0.000003  -0.000012   0.000024   0.000005  -0.000017
  208  C 14 XY    0.000005  -0.000007  -0.000036  -0.000005   0.000157
  209  C 14 XZ   -0.000000  -0.000003   0.000027  -0.000003  -0.000034
  210  C 14 YZ   -0.000003   0.000000  -0.000010  -0.000004  -0.000045
  211  H 15  S    0.000072   0.000052   0.000005   0.000009  -0.000002
  212  H 15  S   -0.000211   0.000059   0.000009   0.000005  -0.000004
  213  H 16  S    0.000031   0.000018   0.000007   0.000007  -0.000001
  214  H 16  S   -0.000185  -0.000294   0.000004  -0.000003  -0.000000
  215  H 17  S    0.000044   0.000029   0.000006   0.000006  -0.000002
  216  H 17  S    0.000078   0.000083   0.000007   0.000007  -0.000001
  217  H 18  S    0.000042   0.000064   0.000014   0.000069   0.000051
  218  H 18  S    0.000170   0.000083   0.000179  -0.000032   0.000076
  219  H 19  S    0.000034  -0.000000  -0.000015   0.000030  -0.000005
  220  H 19  S   -0.000018  -0.000022  -0.000014   0.000073   0.000002
  221  H 20  S    0.000049   0.000014   0.000004   0.000032   0.000006
  222  H 20  S   -0.000001   0.000006   0.000062   0.000003   0.000007
  223  H 21  S    0.000068  -0.000002  -0.000037  -0.000013  -0.000014
  224  H 21  S   -0.000196   0.000146  -0.000185  -0.000031  -0.000022
  225  H 22  S   -0.000028  -0.000008   0.000103   0.000007  -0.000020
  226  H 22  S    0.000092   0.000015   0.000158  -0.000110  -0.000038
  227  H 23  S   -0.000014   0.000084   0.000002  -0.000004  -0.000009
  228  H 23  S   -0.000029  -0.000974   0.000112   0.000016  -0.000031
  229  H 24  S   -0.000011  -0.000023   0.000002  -0.000004  -0.000012
  230  H 24  S   -0.000011  -0.000031   0.000103  -0.000011  -0.000038
  231  H 25  S    0.000006  -0.000033  -0.000021  -0.000007  -0.000014
  232  H 25  S    0.000048  -0.000053   0.000013  -0.000014  -0.000052
  233  H 26  S    0.000017   0.000095  -0.000020  -0.000017  -0.000018
  234  H 26  S   -0.000054  -0.000895  -0.000092  -0.000047  -0.000040
  235  H 27  S   -0.000005  -0.000039  -0.000057   0.000007  -0.000012
  236  H 27  S   -0.000042  -0.000085  -0.000066   0.000081  -0.000008
  237  H 28  S    0.000022  -0.000008   0.000002  -0.000019  -0.000025
  238  H 28  S   -0.000046  -0.000035  -0.001237  -0.000060   0.000010
  239  H 29  S    0.000009  -0.000010  -0.000043   0.000001  -0.000010
  240  H 29  S   -0.000022   0.000067  -0.000042   0.000003  -0.000032
  241  H 30  S   -0.000001  -0.000004   0.000001   0.000011  -0.000014
  242  H 30  S    0.000030   0.000059  -0.001272  -0.000021   0.000032
  243  H 31  S   -0.000009  -0.000021  -0.000050   0.000005  -0.000010
  244  H 31  S   -0.000040   0.000021  -0.000027  -0.000008  -0.000041

                      6          7          8          9         10
                  -10.3376   -10.2674   -10.2612   -10.2605   -10.2499
                     A          A          A          A          A   
    1  C  1  S    0.000822  -0.000005  -0.000035  -0.000013   0.000001
    2  C  1  S   -0.000228  -0.000015  -0.000146  -0.000047  -0.000002
    3  C  1  X    0.000082   0.000011  -0.000003  -0.000018  -0.000007
    4  C  1  Y    0.000279  -0.000004  -0.000067  -0.000020  -0.000006
    5  C  1  Z    0.000074   0.000003   0.000006  -0.000003   0.000002
    6  C  1  S    0.004367   0.000025   0.001687   0.000410   0.000049
    7  C  1  X   -0.000623  -0.000075  -0.000247  -0.000001   0.000036
    8  C  1  Y   -0.002287  -0.000008  -0.000569  -0.000173  -0.000017
    9  C  1  Z   -0.000270  -0.000042  -0.000286   0.000001  -0.000045
   10  C  1 XX   -0.000142  -0.000006  -0.000041  -0.000002   0.000002
   11  C  1 YY   -0.000432   0.000006  -0.000003   0.000020   0.000005
   12  C  1 ZZ   -0.000174  -0.000001  -0.000022  -0.000015   0.000000
   13  C  1 XY   -0.000077   0.000007   0.000018   0.000010  -0.000003
   14  C  1 XZ   -0.000034   0.000001   0.000012   0.000003   0.000005
   15  C  1 YZ   -0.000092   0.000005   0.000013   0.000003   0.000005
   16  C  2  S    0.992956  -0.000006   0.000004   0.000021  -0.000001
   17  C  2  S    0.048275  -0.000030  -0.000181   0.000117  -0.000009
   18  C  2  X   -0.000210  -0.000040   0.000013   0.000029   0.000024
   19  C  2  Y   -0.000993   0.000046   0.000156   0.000032   0.000017
   20  C  2  Z    0.000071   0.000038   0.000038   0.000003   0.000014
   21  C  2  S   -0.007120  -0.000570  -0.000210  -0.000166  -0.000139
   22  C  2  X   -0.000808   0.000103  -0.000220  -0.000062  -0.000065
   23  C  2  Y   -0.003638   0.000186  -0.001916  -0.000337  -0.000031
   24  C  2  Z   -0.002195   0.000121  -0.000227  -0.000288   0.000038
   25  C  2 XX   -0.009476   0.000023  -0.000063  -0.000001  -0.000002
   26  C  2 YY   -0.008853  -0.000011   0.000083  -0.000061  -0.000012
   27  C  2 ZZ   -0.007992  -0.000057   0.000156   0.000046  -0.000033
   28  C  2 XY    0.000167  -0.000007   0.000015  -0.000020  -0.000003
   29  C  2 XZ    0.000029   0.000009  -0.000014  -0.000018   0.000007
   30  C  2 YZ    0.000050  -0.000019  -0.000037  -0.000014  -0.000008
   31  O  3  S   -0.000102   0.000001  -0.000027   0.000003   0.000010
   32  O  3  S    0.000527  -0.000015  -0.000101   0.000049   0.000029
   33  O  3  X   -0.000014  -0.000049   0.000029   0.000046  -0.000006
   34  O  3  Y   -0.000074   0.000022   0.000029   0.000013  -0.000014
   35  O  3  Z    0.000011  -0.000038  -0.000066   0.000004  -0.000007
   36  O  3  S   -0.003599   0.000241  -0.000064  -0.000310  -0.000093
   37  O  3  X   -0.000056   0.000231  -0.000107  -0.000134   0.000049
   38  O  3  Y   -0.000150   0.000018   0.000060  -0.000018   0.000092
   39  O  3  Z   -0.002332   0.000388  -0.000027  -0.000170   0.000085
   40  O  3 XX    0.000479  -0.000046  -0.000170   0.000025   0.000030
   41  O  3 YY    0.000344   0.000024  -0.000042  -0.000016   0.000031
   42  O  3 ZZ   -0.000266   0.000081  -0.000090  -0.000039   0.000055
   43  O  3 XY   -0.000034  -0.000018   0.000031   0.000023   0.000007
   44  O  3 XZ   -0.000033  -0.000015  -0.000023  -0.000028  -0.000001
   45  O  3 YZ   -0.000119  -0.000001  -0.000024   0.000016   0.000012
   46  O  4  S   -0.000000  -0.000009  -0.000154   0.000017   0.000011
   47  O  4  S    0.000511  -0.000054  -0.000432   0.000043   0.000067
   48  O  4  X   -0.000030  -0.000017   0.000044   0.000009   0.000017
   49  O  4  Y   -0.000125  -0.000008   0.000062   0.000017  -0.000009
   50  O  4  Z   -0.000056   0.000013  -0.000034   0.000015   0.000012
   51  O  4  S   -0.001937   0.000352   0.004053  -0.000904  -0.000554
   52  O  4  X    0.000007   0.000026  -0.000477   0.000164   0.000002
   53  O  4  Y    0.000200   0.000034  -0.001053   0.000335   0.000269
   54  O  4  Z    0.002025  -0.000267   0.000441   0.000156  -0.000063
   55  O  4 XX    0.000500  -0.000035  -0.000167   0.000066   0.000037
   56  O  4 YY   -0.000007  -0.000028  -0.000835   0.000089  -0.000014
   57  O  4 ZZ   -0.000389   0.000021  -0.000343  -0.000063   0.000033
   58  O  4 XY   -0.000103  -0.000004  -0.000021   0.000021  -0.000002
   59  O  4 XZ    0.000090  -0.000011  -0.000047   0.000066   0.000010
   60  O  4 YZ    0.000391   0.000017  -0.000130   0.000009  -0.000002
   61  C  5  S   -0.000014   0.000221   0.982055  -0.149077  -0.000036
   62  C  5  S   -0.000133   0.000095   0.049597  -0.007948   0.000001
   63  C  5  X   -0.000010  -0.000012  -0.000303   0.000099   0.000023
   64  C  5  Y    0.000046   0.000013   0.000876  -0.000136  -0.000080
   65  C  5  Z    0.000094  -0.000107  -0.000113   0.000041  -0.000044
   66  C  5  S    0.000469  -0.000475  -0.023027   0.008919   0.000123
   67  C  5  X    0.000583   0.000206   0.002141  -0.002547  -0.000359
   68  C  5  Y    0.001114  -0.000186  -0.000573  -0.000284   0.000976
   69  C  5  Z   -0.000466   0.001073  -0.001455  -0.001552   0.000432
   70  C  5 XX    0.000001   0.000026  -0.008486   0.000911   0.000018
   71  C  5 YY    0.000249   0.000044  -0.008385   0.001120   0.000080
   72  C  5 ZZ   -0.000017   0.000048  -0.008415   0.001083  -0.000005
   73  C  5 XY    0.000013   0.000020  -0.000031  -0.000011  -0.000018
   74  C  5 XZ   -0.000042  -0.000018  -0.000142  -0.000024   0.000012
   75  C  5 YZ   -0.000039  -0.000026   0.000075   0.000046   0.000006
   76  C  6  S    0.000018  -0.000012   0.000967  -0.000237  -0.000003
   77  C  6  S    0.000020  -0.000012  -0.000480  -0.000215  -0.000020
   78  C  6  X    0.000002   0.000065  -0.000004   0.000082  -0.000044
   79  C  6  Y    0.000109  -0.000014  -0.000076  -0.000041  -0.000012
   80  C  6  Z   -0.000042   0.000029   0.000018   0.000103  -0.000009
   81  C  6  S    0.000530  -0.000384   0.006547   0.000315   0.000271
   82  C  6  X   -0.000249  -0.000323  -0.001175  -0.000192   0.000261
   83  C  6  Y   -0.000931  -0.000260   0.001709  -0.000343  -0.000364
   84  C  6  Z    0.000048   0.000179  -0.002684  -0.000050  -0.000168
   85  C  6 XX    0.000017  -0.000020  -0.000123  -0.000034  -0.000006
   86  C  6 YY    0.000061  -0.000021  -0.000137  -0.000043  -0.000013
   87  C  6 ZZ    0.000017  -0.000022  -0.000267  -0.000021   0.000027
   88  C  6 XY   -0.000010  -0.000003  -0.000044   0.000048   0.000023
   89  C  6 XZ    0.000019  -0.000003   0.000007   0.000024   0.000001
   90  C  6 YZ    0.000024   0.000023   0.000093  -0.000041   0.000029
   91  C  7  S    0.000007  -0.000007  -0.000068   0.000001   0.000036
   92  C  7  S    0.000048  -0.000001  -0.000095   0.000091   0.000026
   93  C  7  X   -0.000006   0.000011   0.000009   0.000014  -0.000039
   94  C  7  Y   -0.000011   0.000009   0.000017   0.000011   0.000010
   95  C  7  Z   -0.000001   0.000021   0.000059   0.000009   0.000013
   96  C  7  S   -0.000892  -0.000259  -0.001405  -0.001020  -0.000424
[...]
 H           1.0   8.8762215233   5.4746596917  -3.9636789026
 H           1.0  10.0700897719   4.8983856667  -2.7747484947
 H           1.0   9.1018155847   0.8891549701  -3.2738878931
 H           1.0   7.9732992070   0.8930986042  -0.4295524137
 H           1.0   9.6714704150   0.8010411684  -0.8678508667
 H           1.0   6.3755486669   1.8698523471  -3.0533938538
 H           1.0   6.4467057580   0.2766928271  -2.2776363825
 H           1.0   6.6141424450   2.0731481853  -5.4298103589
 H           1.0   5.0269938690   1.4739054927  -4.8441280833
 H           1.0   5.8044325277   0.7006366574  -6.2520370851
 H           1.0   8.5514149899   0.6633274336  -5.3125285401
 H           1.0   7.6648057377  -0.7427464838  -5.9752043440
 H           1.0   8.4691252541  -0.8836680799  -4.3616346623
 H           1.0   4.8879881892  -0.6551975436  -3.7037785183
 H           1.0   6.3916494343  -1.6293260399  -3.4699039647
 H           1.0   5.6406239372  -1.4570372518  -5.1124939404

          INTERNUCLEAR DISTANCES (ANGS.)
          ------------------------------

                1 C          2 C          3 O          4 O          5 C     

   1 C       0.0000000    1.5096638 *  2.4198549 *  2.3587487 *  3.7348061  
   2 C       1.5096638 *  0.0000000    1.2209619 *  1.3406529 *  2.4066215 *
   3 O       2.4198549 *  1.2209619 *  0.0000000    2.2622523 *  2.7242252 *
   4 O       2.3587487 *  1.3406529 *  2.2622523 *  0.0000000    1.4704712 *
   5 C       3.7348061    2.4066215 *  2.7242252 *  1.4704712 *  0.0000000  
   6 C       4.7176757    3.6483801    4.1799695    2.4136504 *  1.5228753 *
   7 C       6.1598543    4.9373233    5.1933872    3.8338245    2.5655648 *
   8 O       7.0870664    5.9807232    6.3407740    4.7956196    3.6800650  
   9 O       6.4015141    5.0104808    4.9658155    4.1400491    2.6834274 *
  10 C       4.4378600    3.0782285    3.0842559    2.4545165 *  1.5438840 *
  11 N       5.3129545    3.8619033    3.3432605    3.6574222    2.6731929 *
  12 C       5.2312624    3.9594314    3.2439799    4.1685454    3.6498895  
  13 C       5.5294849    4.0372613    3.2972729    3.9935072    2.9295715 *
  14 C       6.7182234    5.2852429    4.8496954    4.8768724    3.7158458  
  15 H       1.0932904 *  2.1560099 *  3.2094612    2.5367450 *  3.9892109  
  16 H       1.0907972 *  2.1401282 *  2.5838949 *  3.2711302    4.5334998  
  17 H       1.0960964 *  2.1363833 *  3.0206827    2.7499295 *  4.0756599  
  18 H       3.9531308    2.5555838 *  2.5213494 *  2.0659060 *  1.0862132 *
  19 H       4.8721632    3.9907502    4.6921132    2.6631959 *  2.1645352 *
  20 H       4.6532897    3.7919002    4.4421909    2.6221163 *  2.1527263 *
  21 H       3.9764242    2.8097966 *  2.9164907 *  2.4116106 *  2.1660591 *
  22 H       5.3002944    4.0264393    4.1540140    3.1689933    2.1496283 *
  23 H       4.3486813    3.1704181    2.3371873 *  3.6828948    3.4959377  
  24 H       5.5089959    4.3761712    3.8819224    4.4717591    4.0719559  
  25 H       6.1204928    4.8541187    3.9712041    5.1535455    4.5441951  
  26 H       4.7518425    3.3220673    2.4309710 *  3.5690364    2.8352157 *
  27 H       6.4264800    4.9682756    4.0834189    5.0444329    4.0143641  
  28 H       5.8864372    4.3929411    3.8745020    4.0680454    2.7743881 *
  29 H       6.9018220    5.5731287    5.2674057    5.1128714    4.1156912  
  30 H       6.9914582    5.5377187    5.2309394    4.9205078    3.5783123  
  31 H       7.4257236    5.9806051    5.3583493    5.7403179    4.6003738  

                6 C          7 C          8 O          9 O         10 C     

   1 C       4.7176757    6.1598543    7.0870664    6.4015141    4.4378600  
   2 C       3.6483801    4.9373233    5.9807232    5.0104808    3.0782285  
   3 O       4.1799695    5.1933872    6.3407740    4.9658155    3.0842559  
   4 O       2.4136504 *  3.8338245    4.7956196    4.1400491    2.4545165 *
   5 C       1.5228753 *  2.5655648 *  3.6800650    2.6834274 *  1.5438840 *
   6 C       0.0000000    1.5729419 *  2.3882712 *  2.4036807 *  2.5367345 *
   7 C       1.5729419 *  0.0000000    1.2308946 *  1.2809316 *  3.0711048  
   8 O       2.3882712 *  1.2308946 *  0.0000000    2.2704609 *  4.2249500  
   9 O       2.4036807 *  1.2809316 *  2.2704609 *  0.0000000    2.7534997 *
  10 C       2.5367345 *  3.0711048    4.2249500    2.7534997 *  0.0000000  
  11 N       3.7530881    3.8229272    5.0103072    2.9750762 *  1.5576902 *
  12 C       4.9401620    5.2534874    6.4472741    4.4737578    2.4927829 *
  13 C       3.9976113    3.9019412    5.0770851    2.9218666 *  2.5767653 *
  14 C       4.3583851    3.9448043    4.9549038    2.9279206 *  2.4786742 *
  15 H       4.7765223    6.2932014    7.1402823    6.6589816    4.5668346  
  16 H       5.6686304    7.0441017    8.0352003    7.1489009    5.0407165  
  17 H       4.8518089    6.3014958    7.1280309    6.6604039    5.0710008  
  18 H       2.1489122 *  2.8143486 *  3.9441868    2.6796163 *  2.1944304 *
  19 H       1.0978745 *  2.1940227 *  2.7096933 *  3.1026359    2.7792727 *
  20 H       1.0946064 *  2.1925688 *  2.6662401 *  3.1489227    3.4815495  
  21 H       3.2356004    4.0358091    5.1302037    3.8337470    1.0917608 *
  22 H       2.4785140 *  2.6710090 *  3.6798575    2.4458243 *  1.0854060 *
  23 H       4.9469251    5.5252131    6.7455121    4.8896854    2.7014392 *
  24 H       5.2343772    5.5982798    6.7310067    4.9245252    2.6997127 *
  25 H       5.8073246    5.9285437    7.1092183    4.9816732    3.4440589  
  26 H       4.1153951    4.3615854    5.5534682    3.6072755    2.8372663 *
  27 H       5.0410800    4.7722611    5.8898590    3.6500802    3.4887064  
  28 H       3.4677719    3.0707093    4.1731929    2.0420853 *  2.7407537 *
  29 H       4.6831390    4.4035035    5.3329898    3.5961967    2.6726670 *
  30 H       3.8698349    3.1237091    4.0272479    2.0493584 *  2.6531225 *
  31 H       5.3284229    4.8204387    5.8046959    3.6730110    3.4327451  

               11 N         12 C         13 C         14 C         15 H     

   1 C       5.3129545    5.2312624    5.5294849    6.7182234    1.0932904 *
   2 C       3.8619033    3.9594314    4.0372613    5.2852429    2.1560099 *
   3 O       3.3432605    3.2439799    3.2972729    4.8496954    3.2094612  
   4 O       3.6574222    4.1685454    3.9935072    4.8768724    2.5367450 *
   5 C       2.6731929 *  3.6498895    2.9295715 *  3.7158458    3.9892109  
   6 C       3.7530881    4.9401620    3.9976113    4.3583851    4.7765223  
   7 C       3.8229272    5.2534874    3.9019412    3.9448043    6.2932014  
   8 O       5.0103072    6.4472741    5.0770851    4.9549038    7.1402823  
   9 O       2.9750762 *  4.4737578    2.9218666 *  2.9279206 *  6.6589816  
  10 C       1.5576902 *  2.4927829 *  2.5767653 *  2.4786742 *  4.5668346  
  11 N       0.0000000    1.5018200 *  1.5120590 *  1.5110475 *  5.6466044  
  12 C       1.5018200 *  0.0000000    2.4443335 *  2.4630665 *  5.5694434  
  13 C       1.5120590 *  2.4443335 *  0.0000000    2.4413220 *  6.1031650  
  14 C       1.5110475 *  2.4630665 *  2.4413220 *  0.0000000    6.9412886  
  15 H       5.6466044    5.5694434    6.1031650    6.9412886    0.0000000  
  16 H       5.6872223    5.3348941    5.8696871    7.1385998    1.7965261 *
  17 H       5.9738410    6.0644437    5.9885680    7.3758301    1.7645423 *
  18 H       2.7291450 *  3.7301691    2.3939043 *  3.8668892    4.4657713  
  19 H       4.2050421    5.2660698    4.7664690    4.6827110    4.6804523  
  20 H       4.6398831    5.7767170    4.6446221    5.3555322    4.7649488  
  21 H       2.1266693 *  2.3738138 *  3.3049715    3.1006902    3.9666884  
  22 H       2.1185931 *  3.1883758    3.2109343    2.3362493 *  5.2822024  
  23 H       2.1136011 *  1.0900325 *  2.6834020 *  3.4016256    4.7918883  
  24 H       2.1248905 *  1.0919542 *  3.3953448    2.6737108 *  5.6464785  
  25 H       2.1218399 *  1.0918505 *  2.6288601 *  2.6918501 *  6.5449566  
  26 H       2.1208370 *  2.6242875 *  1.0885419 *  3.3839247    5.4575813  
  27 H       2.1090801 *  2.6556470 *  1.0922562 *  2.5985946 *  7.0350130  
  28 H       2.1010955 *  3.3737017    1.0927539 *  2.6480464 *  6.4208991  
  29 H       2.1260495 *  2.6747105 *  3.3905689    1.0923417 *  6.9681663  
  30 H       2.1011719 *  3.3881605    2.6462981 *  1.0942979 *  7.2060496  
  31 H       2.1264157 *  2.6807098 *  2.6322438 *  1.0922465 *  7.7391498  

               16 H         17 H         18 H         19 H         20 H     

   1 C       1.0907972 *  1.0960964 *  3.9531308    4.8721632    4.6532897  
   2 C       2.1401282 *  2.1363833 *  2.5555838 *  3.9907502    3.7919002  
   3 O       2.5838949 *  3.0206827    2.5213494 *  4.6921132    4.4421909  
   4 O       3.2711302    2.7499295 *  2.0659060 *  2.6631959 *  2.6221163 *
   5 C       4.5334998    4.0756599    1.0862132 *  2.1645352 *  2.1527263 *
   6 C       5.6686304    4.8518089    2.1489122 *  1.0978745 *  1.0946064 *
   7 C       7.0441017    6.3014958    2.8143486 *  2.1940227 *  2.1925688 *
   8 O       8.0352003    7.1280309    3.9441868    2.7096933 *  2.6662401 *
   9 O       7.1489009    6.6604039    2.6796163 *  3.1026359    3.1489227  
  10 C       5.0407165    5.0710008    2.1944304 *  2.7792727 *  3.4815495  
  11 N       5.6872223    5.9738410    2.7291450 *  4.2050421    4.6398831  
  12 C       5.3348941    6.0644437    3.7301691    5.2660698    5.7767170  
  13 C       5.8696871    5.9885680    2.3939043 *  4.7664690    4.6446221  
  14 C       7.1385998    7.3758301    3.8668892    4.6827110    5.3555322  
  15 H       1.7965261 *  1.7645423 *  4.4657713    4.6804523    4.7649488  
  16 H       0.0000000    1.7807214 *  4.6425809    5.8562805    5.6620917  
  17 H       1.7807214 *  0.0000000    4.1545909    5.0930148    4.5368919  
  18 H       4.6425809    4.1545909    0.0000000    3.0600342    2.4741230 *
  19 H       5.8562805    5.0930148    3.0600342    0.0000000    1.7562362 *
  20 H       5.6620917    4.5368919    2.4741230 *  1.7562362 *  0.0000000  
  21 H       4.4806941    4.7853204    2.9056697 *  3.2235692    4.0965907  
  22 H       5.9803132    5.8937320    2.9012472 *  2.4750471 *  3.5583063  
  23 H       4.3401410    5.1937359    3.4983366    5.3143583    5.6371079  
  24 H       5.6211901    6.4375626    4.4058778    5.3391507    6.1509909  
  25 H       6.1207652    6.9215941    4.4472066    6.2162973    6.6297454  
  26 H       5.0073758    5.1655028    2.1236748 *  4.9224454    4.5857005  
  27 H       6.6460441    6.9174187    3.4677385    5.7901134    5.7004423  
  28 H       6.3837629    6.2059198    2.1740266 *  4.3432723    4.0608379  
  29 H       7.3176979    7.6524218    4.5084556    4.7578274    5.7484623  
  30 H       7.5421168    7.5249707    3.7048845    4.2553472    4.8409287  
  31 H       7.7354567    8.0917626    4.5678154    5.7353687    6.2740447  

               21 H         22 H         23 H         24 H         25 H     

   1 C       3.9764242    5.3002944    4.3486813    5.5089959    6.1204928  
   2 C       2.8097966 *  4.0264393    3.1704181    4.3761712    4.8541187  
   3 O       2.9164907 *  4.1540140    2.3371873 *  3.8819224    3.9712041  
   4 O       2.4116106 *  3.1689933    3.6828948    4.4717591    5.1535455  
   5 C       2.1660591 *  2.1496283 *  3.4959377    4.0719559    4.5441951  
   6 C       3.2356004    2.4785140 *  4.9469251    5.2343772    5.8073246  
   7 C       4.0358091    2.6710090 *  5.5252131    5.5982798    5.9285437  
   8 O       5.1302037    3.6798575    6.7455121    6.7310067    7.1092183  
   9 O       3.8337470    2.4458243 *  4.8896854    4.9245252    4.9816732  
  10 C       1.0917608 *  1.0854060 *  2.7014392 *  2.6997127 *  3.4440589  
  11 N       2.1266693 *  2.1185931 *  2.1136011 *  2.1248905 *  2.1218399 *
  12 C       2.3738138 *  3.1883758    1.0900325 *  1.0919542 *  1.0918505 *
  13 C       3.3049715    3.2109343    2.6834020 *  3.3953448    2.6288601 *
  14 C       3.1006902    2.3362493 *  3.4016256    2.6737108 *  2.6918501 *
  15 H       3.9666884    5.2822024    4.7918883    5.6464785    6.5449566  
  16 H       4.4806941    5.9803132    4.3401410    5.6211901    6.1207652  
  17 H       4.7853204    5.8937320    5.1937359    6.4375626    6.9215941  
  18 H       2.9056697 *  2.9012472 *  3.4983366    4.4058778    4.4472066  
  19 H       3.2235692    2.4750471 *  5.3143583    5.3391507    6.2162973  
  20 H       4.0965907    3.5583063    5.6371079    6.1509909    6.6297454  
  21 H       0.0000000    1.7734205 *  2.3970005 *  2.2764233 *  3.4531953  
  22 H       1.7734205 *  0.0000000    3.6320088    3.1679299    4.0482224  
  23 H       2.3970005 *  3.6320088    0.0000000    1.7947580 *  1.7931745 *
  24 H       2.2764233 *  3.1679299    1.7947580 *  0.0000000    1.7845345 *
  25 H       3.4531953    4.0482224    1.7931745 *  1.7845345 *  0.0000000  
  26 H       3.3606229    3.7134698    2.3988277 *  3.6466396    2.9034429 *
  27 H       4.1261160    4.0243053    3.0546048    3.6264212    2.3708605 *
  28 H       3.6981660    3.1272459    3.6503045    4.1999073    3.6310095  
  29 H       3.0019516    2.3090911 *  3.6609650    2.4192560 *  3.0284944  
  30 H       3.5239168    2.2488755 *  4.1951224    3.6579807    3.6761141  
  31 H       3.9809800    3.4193574    3.6756819    3.0064909    2.4455978 *

               26 H         27 H         28 H         29 H         30 H     

   1 C       4.7518425    6.4264800    5.8864372    6.9018220    6.9914582  
   2 C       3.3220673    4.9682756    4.3929411    5.5731287    5.5377187  
   3 O       2.4309710 *  4.0834189    3.8745020    5.2674057    5.2309394  
   4 O       3.5690364    5.0444329    4.0680454    5.1128714    4.9205078  
   5 C       2.8352157 *  4.0143641    2.7743881 *  4.1156912    3.5783123  
   6 C       4.1153951    5.0410800    3.4677719    4.6831390    3.8698349  
   7 C       4.3615854    4.7722611    3.0707093    4.4035035    3.1237091  
   8 O       5.5534682    5.8898590    4.1731929    5.3329898    4.0272479  
   9 O       3.6072755    3.6500802    2.0420853 *  3.5961967    2.0493584 *
  10 C       2.8372663 *  3.4887064    2.7407537 *  2.6726670 *  2.6531225 *
  11 N       2.1208370 *  2.1090801 *  2.1010955 *  2.1260495 *  2.1011719 *
  12 C       2.6242875 *  2.6556470 *  3.3737017    2.6747105 *  3.3881605  
  13 C       1.0885419 *  1.0922562 *  1.0927539 *  3.3905689    2.6462981 *
  14 C       3.3839247    2.5985946 *  2.6480464 *  1.0923417 *  1.0942979 *
  15 H       5.4575813    7.0350130    6.4208991    6.9681663    7.2060496  
  16 H       5.0073758    6.6460441    6.3837629    7.3176979    7.5421168  
  17 H       5.1655028    6.9174187    6.2059198    7.6524218    7.5249707  
  18 H       2.1236748 *  3.4677385    2.1740266 *  4.5084556    3.7048845  
  19 H       4.9224454    5.7901134    4.3432723    4.7578274    4.2553472  
  20 H       4.5857005    5.7004423    4.0608379    5.7484623    4.8409287  
  21 H       3.3606229    4.1261160    3.6981660    3.0019516    3.5239168  
  22 H       3.7134698    4.0243053    3.1272459    2.3090911 *  2.2488755 *
  23 H       2.3988277 *  3.0546048    3.6503045    3.6609650    4.1951224  
  24 H       3.6466396    3.6264212    4.1999073    2.4192560 *  3.6579807  
  25 H       2.9034429 *  2.3708605 *  3.6310095    3.0284944    3.6761141  
  26 H       0.0000000    1.7894857 *  1.8177365 *  4.2127521    3.6491249  
  27 H       1.7894857 *  0.0000000    1.8084236 *  3.5885590    2.9467746 *
  28 H       1.8177365 *  1.8084236 *  0.0000000    3.6482210    2.3805662 *
  29 H       4.2127521    3.5885590    3.6482210    0.0000000    1.8068262 *
  30 H       3.6491249    2.9467746 *  2.3805662 *  1.8068262 *  0.0000000  
  31 H       3.6067527    2.3133942 *  2.9821069 *  1.7871448 *  1.8143386 *

               31 H     

   1 C       7.4257236  
   2 C       5.9806051  
   3 O       5.3583493  
   4 O       5.7403179  
   5 C       4.6003738  
   6 C       5.3284229  
   7 C       4.8204387  
   8 O       5.8046959  
   9 O       3.6730110  
  10 C       3.4327451  
  11 N       2.1264157 *
  12 C       2.6807098 *
  13 C       2.6322438 *
  14 C       1.0922465 *
  15 H       7.7391498  
  16 H       7.7354567  
  17 H       8.0917626  
  18 H       4.5678154  
  19 H       5.7353687  
  20 H       6.2740447  
  21 H       3.9809800  
  22 H       3.4193574  
  23 H       3.6756819  
  24 H       3.0064909  
  25 H       2.4455978 *
  26 H       3.6067527  
  27 H       2.3133942 *
  28 H       2.9821069 *
  29 H       1.7871448 *
  30 H       1.8143386 *
  31 H       0.0000000  

  * ... LESS THAN  3.000


          NUCLEAR ENERGY    =     1011.2072525574
          ELECTRONIC ENERGY =    -1720.0127448370
          TOTAL ENERGY      =     -708.8054922796

 THE INITIAL GEOMETRY IS ALREADY CONVERGED,
 SO ORBITALS/PROPERTY OUTPUT IS ALREADY PRINTED ABOVE
  $VIB   
          IVIB=   0 IATOM=   0 ICOORD=   0 E=     -708.8054922796
 -5.300324659E-06 1.128110953E-05 1.883356198E-05-1.214232456E-04 7.738985513E-05
 -1.043925136E-04 8.152570360E-05 6.989459610E-05-8.336941309E-05 7.987959897E-05
  7.072271558E-05 5.319388002E-05-5.239746442E-06 2.148023137E-04-2.232890355E-04
  1.336573983E-05 2.045534042E-04 1.020794883E-04 5.886302137E-05-1.242282872E-04
 -6.305227797E-05-5.078330419E-05 5.163510738E-05 5.188387137E-05 9.919060653E-05
  1.918714915E-05 4.326736179E-05-4.318088259E-04-3.582799546E-04-2.214709540E-04
  2.032553950E-04-1.615331581E-04 1.295248291E-04 5.731710887E-05 3.654499364E-04
 -1.980246581E-04 2.240908101E-04-2.361045404E-04-1.389525909E-04 9.164311263E-05
  7.341411839E-06-2.425827768E-04 1.976904845E-05-9.004343203E-06 1.941607228E-05
  1.973464868E-05 1.357127643E-05 2.377035352E-05-6.179296807E-06-3.816716371E-05
  1.489995169E-05 1.334814185E-04-4.862820657E-05-3.912589698E-05-4.205577319E-05
 -9.369156130E-06-4.755634137E-05 2.009018094E-05-2.740801766E-05 6.944324537E-05
  6.155208490E-05 1.758281143E-04 2.830728173E-04 1.046802224E-04-8.175279142E-05
 -6.674977632E-05 6.142847569E-05-3.087589690E-04 2.876067130E-04 5.691953005E-05
 -1.412178179E-04 7.476144358E-05-7.100083469E-05-2.238749193E-05 2.039434179E-05
 -1.882377726E-04-7.962629766E-05 1.697016445E-04-5.588462970E-05 8.927870947E-05
  8.032384187E-05-8.094325825E-05 1.703836026E-04-1.446412976E-04-1.351562701E-05
  2.574737343E-06 7.782673096E-06-3.178253183E-04 6.690743608E-05 1.606683967E-04
  3.411250938E-06 3.566472033E-05-3.741695497E-05
 -5.399240968E+00 6.861546483E+00-7.794908647E+00
 ......END OF GEOMETRY SEARCH......
 CPU     0: STEP CPU TIME=     0.01 TOTAL CPU TIME=      693.1 (   11.6 MIN)
 TOTAL WALL CLOCK TIME=      695.9 SECONDS, CPU UTILIZATION IS  99.59%
               1537369  WORDS OF DYNAMIC MEMORY USED
 EXECUTION OF GAMESS TERMINATED NORMALLY Sat May 24 19:20:34 2014
 DDI: 263624 bytes (0.3 MB / 0 MWords) used by master data server.

 ----------------------------------------
 CPU timing information for all processes
 ========================================
 0: 692.166 + 0.930 = 693.97
 1: 692.669 + 0.629 = 693.299
 ----------------------------------------
 ddikick.x: exited gracefully.
----- accounting info -----
Files used on the master node localhost were:
-rw-r--r-- 1 maho staff    2241 May 24 19:08 ./000000001.4.F05
-rw-r--r-- 1 maho staff 5856880 May 24 19:20 ./000000001.4.F10
-rw-r--r-- 1 maho staff 7908712 May 24 19:12 ./000000001.4.F22
-rw-r--r-- 1 maho staff 7908712 May 24 19:12 ./000000001.4.F22.001
-rw-r--r-- 1 maho staff 1121787 May 24 19:20 ./000000001.4.dat
-rw-r--r-- 1 maho staff    2241 May 24 19:08 ./000000001.4.inp
Sat May 24 19:20:37 JST 2014
0.130u 0.052s 11:39.32 0.0%	0+0k 0+104io 0pf+0w
0.13user 0.05system 11:39.32elapsed 0%CPU (0avgtext+0avgdata 5776maxresident)k
0inputs+112outputs (0major+13798minor)pagefaults 0swaps
model name	: Intel(R) Core(TM)2 CPU         L7400  @ 1.50GHz
