----- GAMESS execution script 'rungms' -----
This job is running on host localhost
under operating system Linux at Sat May 24 23:46:01 JST 2014
PBS has assigned the following compute nodes to this run:
c2009
Copying input file 000000002.4.inp to your run's scratch directory...

 Distributed Data Interface kickoff program.
 Initiating 2 compute processes on 1 nodes to run the following command:
 /home/maho/pubchemqc.quest/build/gamess/gamess.00.x 000000002.4 

          ******************************************************
          *         GAMESS VERSION =  1 MAY 2013 (R1)          *
          *             FROM IOWA STATE UNIVERSITY             *
          * M.W.SCHMIDT, K.K.BALDRIDGE, J.A.BOATZ, S.T.ELBERT, *
          *   M.S.GORDON, J.H.JENSEN, S.KOSEKI, N.MATSUNAGA,   *
          *          K.A.NGUYEN, S.J.SU, T.L.WINDUS,           *
          *       TOGETHER WITH M.DUPUIS, J.A.MONTGOMERY       *
          *         J.COMPUT.CHEM.  14, 1347-1363(1993)        *
          **************** 64 BIT INTEL VERSION ****************

  SINCE 1993, STUDENTS AND POSTDOCS WORKING AT IOWA STATE UNIVERSITY
  AND ALSO IN THEIR VARIOUS JOBS AFTER LEAVING ISU HAVE MADE IMPORTANT
  CONTRIBUTIONS TO THE CODE:
     IVANA ADAMOVIC, CHRISTINE AIKENS, YURI ALEXEEV, POOJA ARORA,
     ANDREY ASADCHEV, ROB BELL, PRADIPTA BANDYOPADHYAY, JONATHAN BENTZ,
     BRETT BODE, GALINA CHABAN, WEI CHEN, CHEOL HO CHOI, PAUL DAY,
     ALBERT DEFUSCO, TIM DUDLEY, DMITRI FEDOROV, GRAHAM FLETCHER,
     MARK FREITAG, KURT GLAESEMANN, DAN KEMP, GRANT MERRILL,
     NORIYUKI MINEZAWA, JONATHAN MULLIN, TAKESHI NAGATA,
     SEAN NEDD, HEATHER NETZLOFF, BOSILJKA NJEGIC, RYAN OLSON, MIKE PAK,
     JIM SHOEMAKER, LYUDMILA SLIPCHENKO, SAROM SOK, JIE SONG,
     TETSUYA TAKETSUGU, SIMON WEBB, SOOHAENG YOO, FEDERICO ZAHARIEV

  ADDITIONAL CODE HAS BEEN PROVIDED BY COLLABORATORS IN OTHER GROUPS:
     IOWA STATE UNIVERSITY:
          JOE IVANIC, LAIMUTIS BYTAUTAS, KLAUS RUEDENBERG
     UNIVERSITY OF TOKYO: KIMIHIKO HIRAO, TAKAHITO NAKAJIMA,
          TAKAO TSUNEDA, MUNEAKI KAMIYA, SUSUMU YANAGISAWA,
          KIYOSHI YAGI, MAHITO CHIBA, SEIKEN TOKURA, NAOAKI KAWAKAMI
     UNIVERSITY OF AARHUS: FRANK JENSEN
     UNIVERSITY OF IOWA: VISVALDAS KAIRYS, HUI LI
     NATIONAL INST. OF STANDARDS AND TECHNOLOGY: WALT STEVENS, DAVID GARMER
     UNIVERSITY OF PISA: BENEDETTA MENNUCCI, JACOPO TOMASI
     UNIVERSITY OF MEMPHIS: HENRY KURTZ, PRAKASHAN KORAMBATH
     UNIVERSITY OF ALBERTA: TOBY ZENG, MARIUSZ KLOBUKOWSKI
     UNIVERSITY OF NEW ENGLAND: MARK SPACKMAN
     MIE UNIVERSITY: HIROAKI UMEDA
     MICHIGAN STATE UNIVERSITY:
          KAROL KOWALSKI, MARTA WLOCH, JEFFREY GOUR, JESSE LUTZ,
          WEI LI, PIOTR PIECUCH
     UNIVERSITY OF SILESIA: MONIKA MUSIAL, STANISLAW KUCHARSKI
     FACULTES UNIVERSITAIRES NOTRE-DAME DE LA PAIX:
          OLIVIER QUINET, BENOIT CHAMPAGNE
     UNIVERSITY OF CALIFORNIA - SANTA BARBARA: BERNARD KIRTMAN
     INSTITUTE FOR MOLECULAR SCIENCE:
          KAZUYA ISHIMURA, MICHIO KATOUDA, AND SHIGERU NAGASE
     UNIVERSITY OF NOTRE DAME: DAN CHIPMAN
     KYUSHU UNIVERSITY:
          HARUYUKI NAKANO,
          FENG LONG GU, JACEK KORCHOWIEC, MARCIN MAKOWSKI, AND YURIKO AOKI,
          HIROTOSHI MORI AND EISAKU MIYOSHI
     PENNSYLVANIA STATE UNIVERSITY:
          TZVETELIN IORDANOV, CHET SWALINA, JONATHAN SKONE,
          SHARON HAMMES-SCHIFFER
     WASEDA UNIVERSITY:
          MASATO KOBAYASHI, TOMOKO AKAMA, TSUGUKI TOUMA,
          TAKESHI YOSHIKAWA, YASUHIRO IKABATA, HIROMI NAKAI
     NANJING UNIVERSITY: SHUHUA LI
     UNIVERSITY OF NEBRASKA:
          PEIFENG SU, DEJUN SI, NANDUN THELLAMUREGE, YALI WANG, HUI LI
     UNIVERSITY OF ZURICH:
          ROBERTO PEVERATI, KIM BALDRIDGE
     N. COPERNICUS UNIVERSITY AND JACKSON STATE UNIVERSITY:
          MARIA BARYSZ


 PARALLEL VERSION RUNNING ON     2 PROCESSORS IN     1 NODES.

 EXECUTION OF GAMESS BEGUN Sat May 24 23:46:01 2014

            ECHO OF THE FIRST FEW INPUT CARDS -
 INPUT CARD> $CONTRL RUNTYP=OPTIMIZE UNITS=ANGS DFTTYP=B3LYPV1R ICHARG=1 $END               
 INPUT CARD> $BASIS GBASIS=N31 NGAUSS=6 NDFUNC=1 $END                                       
 INPUT CARD> $ZMAT DLC=.T. AUTO=.T. $END                                                    
 INPUT CARD> $SCF DIRSCF=.T. FDIFF=.T. $END                                                 
 INPUT CARD> $STATPT NSTEP=3 OPTTOL=5D-4 $END                                               
 INPUT CARD> $SYSTEM TIMLIM=99999999999 MWORDS=200 $END                                     
 INPUT CARD>                                                                                
 INPUT CARD> $DATA                                                                          
 INPUT CARD>PUBCHEM 000000002 B3LYP 6-31G(d) gamess geometry optimization                   
 INPUT CARD>C1                                                                              
 INPUT CARD>C      6.0      0.8534969865    3.6892102868   -0.1689540401                    
 INPUT CARD>C      6.0      2.0554171317    2.8746380670    0.2152279150                    
 INPUT CARD>O      8.0      2.1532149537    2.1476716139    1.1811928829                    
 INPUT CARD>O      8.0      3.0817447150    3.0517547295   -0.6760112910                    
 INPUT CARD>C      6.0      4.2098410350    2.1614823930   -0.5762083766                    
 INPUT CARD>C      6.0      4.4781832727    1.6329798205   -1.9953196788                    
 INPUT CARD>C      6.0      5.4882629656    0.4856484077   -1.9869822477                    
 INPUT CARD>O      8.0      6.1222085304    0.1724709500   -1.0021522002                    
 INPUT CARD>O      8.0      5.6653942994   -0.1692886517   -3.1428276227                    
 INPUT CARD>C      6.0      5.4470421623    2.8966206694   -0.0388143131                    
 INPUT CARD>N      7.0      5.6821616267    2.8975592887    1.4761440037                    
 INPUT CARD>C      6.0      4.7532042338    3.8455100242    2.1929328868                    
 INPUT CARD>C      6.0      5.5291488140    1.5081777399    2.0610795625                    
 INPUT CARD>C      6.0      7.1036212117    3.3596056177    1.6943182379                    
 INPUT CARD>H      1.0      1.1436304947    4.7132210891   -0.4213956619                    
 INPUT CARD>H      1.0      0.1339966493    3.6853495272    0.6499256941                    
 INPUT CARD>H      1.0      0.3886057292    3.2532996775   -1.0605742676                    
 INPUT CARD>H      1.0      3.9379845944    1.3211870193    0.0609253938                    
 INPUT CARD>H      1.0      4.8357343801    2.4354692753   -2.6551506116                    
 INPUT CARD>H      1.0      3.5259347549    1.2884205318   -2.4152003773                    
 INPUT CARD>H      1.0      5.0860713314    0.1682494558   -3.8478525652                    
 INPUT CARD>H      1.0      5.4211995242    3.9443940061   -0.3494982900                    
 INPUT CARD>H      1.0      6.3333849713    2.4169767007   -0.4496266950                    
 INPUT CARD>H      1.0      3.7322418788    3.4832916161    2.0923387258                    
 INPUT CARD>H      1.0      4.8633105445    4.8418393315    1.7615170532                    
 INPUT CARD>H      1.0      5.0328374250    3.8654318858    3.2476023176                    
 INPUT CARD>H      1.0      4.4686198237    1.2621866387    2.1042760414                    
 INPUT CARD>H      1.0      5.9462514964    1.5200747452    3.0690024177                    
 INPUT CARD>H      1.0      6.0628993731    0.8000677717    1.4259504502                    
 INPUT CARD>H      1.0      7.2382523996    4.3325802409    1.2186639003                    
 INPUT CARD>H      1.0      7.7847810802    2.6281864120    1.2572684916                    
 INPUT CARD>H      1.0      7.2841802631    3.4427034343    2.7666989550                    
 INPUT CARD> $END                                                                           
 INPUT CARD>                                                                                
 INPUT CARD>                                                                                
  200000000 WORDS OF MEMORY AVAILABLE

     BASIS OPTIONS
     -------------
     GBASIS=N31          IGAUSS=       6      POLAR=POPN31  
     NDFUNC=       1     NFFUNC=       0     DIFFSP=       F
     NPFUNC=       0      DIFFS=       F     BASNAM=        


     RUN TITLE
     ---------
 PUBCHEM 000000002 B3LYP 6-31G(d) gamess geometry optimization                   

 THE POINT GROUP OF THE MOLECULE IS C1      
 THE ORDER OF THE PRINCIPAL AXIS IS     0

 ATOM      ATOMIC                      COORDINATES (BOHR)
           CHARGE         X                   Y                   Z
 C           6.0     1.6128754358        6.9715965531       -0.3192768403
 C           6.0     3.8841751694        5.4322782605        0.4067217843
 O           8.0     4.0689862552        4.0585108619        2.2321308873
 O           8.0     5.8236530755        5.7669802205       -1.2774761046
 C           6.0     7.9554460080        4.0846094501       -1.0888759436
 C           6.0     8.4625393082        3.0858844042       -3.7706074508
 C           6.0    10.3713131535        0.9177424169       -3.7548519906
 O           8.0    11.5692965621        0.3259228363       -1.8937930564
 O           8.0    10.7060428383       -0.3199091645       -5.9390830335
 C           6.0    10.2934171303        5.4738193555       -0.0733484162
 N           7.0    10.7377284924        5.4755930888        2.7895076854
 C           6.0     8.9822535656        7.2669602288        4.1440422655
 C           6.0    10.4485762038        2.8500426692        3.8948756120
 C           6.0    13.4238976107        6.3487340443        3.2017972056
 H           1.0     2.1611482662        8.9066963780       -0.7963223334
 H           1.0     0.2532169504        6.9643007754        1.2281814742
 H           1.0     0.7343583454        6.1478449464       -2.0041947554
 H           1.0     7.4417118273        2.4966814450        0.1151323000
 H           1.0     9.1382129278        4.6023695818       -5.0175071121
 H           1.0     6.6630505373        2.4347617621       -4.5640669185
 H           1.0     9.6112811704        0.3179453690       -7.2713869894
 H           1.0    10.2445816255        7.4538238591       -0.6604560013
 H           1.0    11.9683621705        4.5674236830       -0.8496712503
 H           1.0     7.0529144708        6.5824666898        3.9539468653
 H           1.0     9.1903243223        9.1497496131        3.3287845532
 H           1.0     9.5106836740        7.3046070884        6.1370784974
 H           1.0     8.4444670101        2.3851868925        3.9765051208
 H           1.0    11.2367859823        2.8725247493        5.7995736251
 H           1.0    11.4572185063        1.5119088601        2.6946556229
 H           1.0    13.6783136652        8.1873894751        2.3029408427
 H           1.0    14.7111031160        4.9665521633        2.3758929421
 H           1.0    13.7651047424        6.5057661478        5.2283029155

          INTERNUCLEAR DISTANCES (ANGS.)
          ------------------------------

                1 C          2 C          3 O          4 O          5 C     

   1 C       0.0000000    1.5019107 *  2.4266242 *  2.3724554 *  3.7101016  
   2 C       1.5019107 *  0.0000000    1.2129027 *  1.3707757 *  2.4034360 *
   3 O       2.4266242 *  1.2129027 *  0.0000000    2.2646724 *  2.7052469 *
   4 O       2.3724554 *  1.3707757 *  2.2646724 *  0.0000000    1.4405370 *
   5 C       3.7101016    2.4034360 *  2.7052469 *  1.4405370 *  0.0000000  
   6 C       4.5499501    3.5068549    3.9699644    2.3882080 *  1.5379205 *
   7 C       5.9202273    4.7266724    4.8910326    3.7543144    2.5363488 *
   8 O       6.3891311    5.0321480    4.9417935    4.2001266    2.7919069 *
   9 O       6.8473567    5.7943043    6.0333127    4.8099427    3.7601414  
  10 C       4.6632384    3.4011970    3.5914677    2.4545302 *  1.5361925 *
  11 N       5.1622729    3.8397540    3.6197779    3.3790112    2.6309100 *
  12 C       4.5618698    3.4830970    3.2659175    3.4138930    3.2862343  
  13 C       5.6206470    4.1642759    3.5468412    3.9829742    3.0203754  
  14 C       6.5302738    5.2827328    5.1223631    4.6785387    3.8684304  
  15 H       1.0938475 *  2.1487280 *  3.1889802    2.5654603 *  3.9921153  
  16 H       1.0900732 *  2.1302751 *  2.5930563 *  3.2937471    4.5208498  
  17 H       1.0959601 *  2.1329126 *  3.0597025    2.7279125 *  4.0035627  
  18 H       3.8954387    2.4456246 *  2.2635103 *  2.0666608 *  1.0890095 *
  19 H       4.8591413    4.0202122    4.6900181    2.7153784 *  2.1883355 *
  20 H       4.2369019    3.4055339    3.9442004    2.5162335 *  2.1475233 *
  21 H       6.6216422    5.7461315    6.1490696    4.7320719    3.9299380  
  22 H       4.5783863    3.5765604    4.0312467    2.5251662 *  2.1673857 *
  23 H       5.6326306    4.3534463    4.4950995    3.3207465    2.1426010 *
  24 H       3.6664724    2.5895454 *  2.2599543 *  2.8763053 *  3.0160279  
  25 H       4.5971597    3.7610047    3.8652211    3.5099749    3.6161161  
  26 H       5.4009997    4.3637138    3.9386513    4.4568573    4.2664148  
  27 H       4.9119377    3.4629539    2.6452346 *  3.5855229    2.8391365 *
  28 H       6.4129291    5.0117325    4.2830864    4.9574762    4.0882865  
  29 H       6.1667445    4.6722163    4.1426531    4.2866794    3.0489203  
  30 H       6.5654025    5.4767016    5.5346938    4.7441400    4.1360014  
  31 H       7.1555979    5.8285674    5.6525409    5.1025025    4.0447060  
  32 H       7.0733664    5.8457392    5.5242866    5.4466099    4.7189107  

                6 C          7 C          8 O          9 O         10 C     

   1 C       4.5499501    5.9202273    6.3891311    6.8473567    4.6632384  
   2 C       3.5068549    4.7266724    5.0321480    5.7943043    3.4011970  
   3 O       3.9699644    4.8910326    4.9417935    6.0333127    3.5914677  
   4 O       2.3882080 *  3.7543144    4.2001266    4.8099427    2.4545302 *
   5 C       1.5379205 *  2.5363488 *  2.7919069 *  3.7601414    1.5361925 *
   6 C       0.0000000    1.5286268 *  2.4129415 *  2.4442619 *  2.5225759 *
   7 C       1.5286268 *  0.0000000    1.2123767 *  1.3402599 *  3.0999750  
   8 O       2.4129415 *  1.2123767 *  0.0000000    2.2153939 *  2.9672986 *
   9 O       2.4442619 *  1.3402599 *  2.2153939 *  0.0000000    4.3683379  
  10 C       2.5225759 *  3.0999750    2.9672986 *  4.3683379    0.0000000  
  11 N       3.8858442    4.2247076    3.7096765    5.5444329    1.5330952 *
  12 C       4.7447219    5.4130095    5.0570701    6.7395133    2.5223992 *
  13 C       4.1921926    4.1754092    3.3939978    5.4692876    2.5187436 *
  14 C       4.8463996    4.9417594    4.2885838    6.1578869    2.4417939 *
  15 H       4.8046192    6.2609315    6.7632780    7.1896760    4.6867641  
  16 H       5.4846606    6.7719671    7.1364108    7.7356043    5.4152478  
  17 H       4.4970913    5.8757663    6.5091566    6.6252840    5.1729095  
  18 H       2.1487608 *  2.7010023 *  2.6871019 *  3.9331279    2.1838484 *
  19 H       1.0987306 *  2.1619537 *  3.0835987    2.7768558 *  2.7260912 *
  20 H       1.0962655 *  2.1629947 *  3.1595389    2.6891717 *  3.4531395  
  21 H       2.4386146 *  1.9301136 *  3.0284664    0.9729374 *  4.6992640  
  22 H       2.9900908 *  3.8273715    3.8916287    4.9784239    1.0931703 *
  23 H       2.5388169 *  2.6091612 *  2.3211389 *  3.7931928    1.0883146 *
  24 H       4.5485199    5.3582025    5.1234118    6.6697367    2.7975947 *
  25 H       4.9556962    5.7808487    5.5700712    7.0574315    2.7140028 *
  26 H       5.7253572    6.2474974    5.7345535    7.5839761    3.4511875  
  27 H       4.1163411    4.2873160    3.6839832    5.5689754    2.8673195 *
  28 H       5.2740241    5.1810011    4.2920038    6.4435752    3.4354932  
  29 H       3.8613672    3.4752232    2.5086008 *  4.6873655    2.6306558 *
  30 H       5.0234962    5.3044806    4.8460383    6.4624542    2.6175686 *
  31 H       4.7437701    4.5154875    3.7282258    5.6283668    2.6864309 *
  32 H       5.8159728    5.8793689    5.1233620    7.1126267    3.3976738  

               11 N         12 C         13 C         14 C         15 H     

   1 C       5.1622729    4.5618698    5.6206470    6.5302738    1.0938475 *
   2 C       3.8397540    3.4830970    4.1642759    5.2827328    2.1487280 *
   3 O       3.6197779    3.2659175    3.5468412    5.1223631    3.1889802  
   4 O       3.3790112    3.4138930    3.9829742    4.6785387    2.5654603 *
   5 C       2.6309100 *  3.2862343    3.0203754    3.8684304    3.9921153  
   6 C       3.8858442    4.7447219    4.1921926    4.8463996    4.8046192  
   7 C       4.2247076    5.4130095    4.1754092    4.9417594    6.2609315  
   8 O       3.7096765    5.0570701    3.3939978    4.2885838    6.7632780  
   9 O       5.5444329    6.7395133    5.4692876    6.1578869    7.1896760  
  10 C       1.5330952 *  2.5223992 *  2.5187436 *  2.4417939 *  4.6867641  
  11 N       0.0000000    1.5084292 *  1.5152371 *  1.5105079 *  5.2436199  
  12 C       1.5084292 *  0.0000000    2.4662923 *  2.4513628 *  4.5405571  
  13 C       1.5152371 *  2.4662923 *  0.0000000    2.4578980 *  5.9722489  
  14 C       1.5105079 *  2.4513628 *  2.4578980 *  0.0000000    6.4676123  
  15 H       5.2436199    4.5405571    5.9722489    6.4676123    0.0000000  
  16 H       5.6643962    4.8727406    5.9865766    7.0549650    1.7954414 *
  17 H       5.8807504    5.4759238    6.2622166    7.2589370    1.7635142 *
  18 H       2.7440748 *  3.4032698    2.5626911 *  4.1041903    4.4211926  
  19 H       4.2423533    5.0496475    4.8562867    4.9915146    4.8794924  
  20 H       4.7308776    5.4110802    4.9089960    5.8290472    4.6238393  
  21 H       6.0124367    7.0798400    6.0751300    6.7060360    6.9238872  
  22 H       2.1205975 *  2.6305802 *  3.4289486    2.7110342 *  4.3467069  
  23 H       2.0889338 *  3.3942304    2.7886121 *  2.4654235 *  5.6751288  
  24 H       2.1271966 *  1.0879731 *  2.6703795 *  3.3970454    3.8121511  
  25 H       2.1288917 *  1.0912906 *  3.4126790    2.6871033 *  4.3148198  
  26 H       2.1204867 *  1.0912924 *  2.6852948 *  2.6375551 *  5.4135223  
  27 H       2.1311211 *  2.6004630 *  1.0895409 *  3.3927075    5.4170297  
  28 H       2.1223584 *  2.7565393 *  1.0908825 *  2.5716017 *  6.7412336  
  29 H       2.1323582 *  3.4026875    1.0907330 *  2.7760326 *  6.5516916  
  30 H       2.1323695 *  2.7132825 *  3.4070440    1.0913534 *  6.3229027  
  31 H       2.1310741 *  3.3982058    2.6435598 *  1.0908553 *  7.1603187  
  32 H       2.1281865 *  2.6262712 *  2.7056282 *  1.0906453 *  7.0345230  

               16 H         17 H         18 H         19 H         20 H     

   1 C       1.0900732 *  1.0959601 *  3.8954387    4.8591413    4.2369019  
   2 C       2.1302751 *  2.1329126 *  2.4456246 *  4.0202122    3.4055339  
   3 O       2.5930563 *  3.0597025    2.2635103 *  4.6900181    3.9442004  
   4 O       3.2937471    2.7279125 *  2.0666608 *  2.7153784 *  2.5162335 *
   5 C       4.5208498    4.0035627    1.0890095 *  2.1883355 *  2.1475233 *
   6 C       5.4846606    4.4970913    2.1487608 *  1.0987306 *  1.0962655 *
   7 C       6.7719671    5.8757663    2.7010023 *  2.1619537 *  2.1629947 *
   8 O       7.1364108    6.5091566    2.6871019 *  3.0835987    3.1595389  
   9 O       7.7356043    6.6252840    3.9331279    2.7768558 *  2.6891717 *
  10 C       5.4152478    5.1729095    2.1838484 *  2.7260912 *  3.4531395  
  11 N       5.6643962    5.8807504    2.7440748 *  4.2423533    4.7308776  
  12 C       4.8727406    5.4759238    3.4032698    5.0496475    5.4110802  
  13 C       5.9865766    6.2622166    2.5626911 *  4.8562867    4.9089960  
  14 C       7.0549650    7.2589370    4.1041903    4.9915146    5.8290472  
  15 H       1.7954414 *  1.7635142 *  4.4211926    4.8794924    4.6238393  
  16 H       0.0000000    1.7824991 *  4.5173565    5.8815022    5.1619290  
  17 H       1.7824991 *  0.0000000    4.1939136    4.7946297    3.9419025  
  18 H       4.5173565    4.1939136    0.0000000    3.0699590    2.5103899 *
  19 H       5.8815022    4.7946297    3.0699590    0.0000000    1.7575187 *
  20 H       5.1619290    3.9419025    2.5103899 *  1.7575187 *  0.0000000  
  21 H       7.5579790    6.2731681    4.2339005    2.5740032 *  2.3961013 *
  22 H       5.3870647    5.1293509    3.0413137    2.8170296 *  3.8617805  
  23 H       6.4226319    6.0343263    2.6831626 *  2.6660148 *  3.6081707  
  24 H       3.8818490    4.6014845    2.9738303 *  4.9854069    5.0177615  
  25 H       4.9939477    5.5236438    4.0178642    5.0297446    5.6444953  
  26 H       5.5478820    6.3642737    4.2221789    6.0766878    6.4014903  
  27 H       5.1745349    5.5341958    2.1119509 *  4.9156391    4.6168182  
  28 H       6.6575261    7.1375695    3.6223224    5.9022981    5.9990063  
  29 H       6.6391982    6.6632395    2.5787829 *  4.5646312    4.6291595  
  30 H       7.1563133    7.2991392    4.6152589    4.9373638    6.0210614  
  31 H       7.7473196    7.7760254    4.2352482    4.9031663    5.7809837  
  32 H       7.4608801    7.8887795    4.7978191    6.0337269    6.7540673  

               21 H         22 H         23 H         24 H         25 H     

   1 C       6.6216422    4.5783863    5.6326306    3.6664724    4.5971597  
   2 C       5.7461315    3.5765604    4.3534463    2.5895454 *  3.7610047  
   3 O       6.1490696    4.0312467    4.4950995    2.2599543 *  3.8652211  
   4 O       4.7320719    2.5251662 *  3.3207465    2.8763053 *  3.5099749  
   5 C       3.9299380    2.1673857 *  2.1426010 *  3.0160279    3.6161161  
   6 C       2.4386146 *  2.9900908 *  2.5388169 *  4.5485199    4.9556962  
   7 C       1.9301136 *  3.8273715    2.6091612 *  5.3582025    5.7808487  
   8 O       3.0284664    3.8916287    2.3211389 *  5.1234118    5.5700712  
   9 O       0.9729374 *  4.9784239    3.7931928    6.6697367    7.0574315  
  10 C       4.6992640    1.0931703 *  1.0883146 *  2.7975947 *  2.7140028 *
  11 N       6.0124367    2.1205975 *  2.0889338 *  2.1271966 *  2.1288917 *
  12 C       7.0798400    2.6305802 *  3.3942304    1.0879731 *  1.0912906 *
  13 C       6.0751300    3.4289486    2.7886121 *  2.6703795 *  3.4126790  
  14 C       6.7060360    2.7110342 *  2.4654235 *  3.3970454    2.6871033 *
  15 H       6.9238872    4.3467069    5.6751288    3.8121511    4.3148198  
  16 H       7.5579790    5.3870647    6.4226319    3.8818490    4.9939477  
  17 H       6.2731681    5.1293509    6.0343263    4.6014845    5.5236438  
  18 H       4.2339005    3.0413137    2.6831626 *  2.9738303 *  4.0178642  
  19 H       2.5740032 *  2.8170296 *  2.6660148 *  4.9854069    5.0297446  
  20 H       2.3961013 *  3.8617805    3.6081707    5.0177615    5.6444953  
  21 H       0.0000000    5.1584941    4.2615144    6.9360098    7.3045939  
  22 H       5.1584941    0.0000000    1.7818843 *  3.0046233    2.3607274 *
  23 H       4.2615144    1.7818843 *  0.0000000    3.7900608    3.5958635  
  24 H       6.9360098    3.0046233    3.7900608    0.0000000    1.7984469 *
  25 H       7.3045939    2.3607274 *  3.5958635    1.7984469 *  0.0000000  
  26 H       8.0010919    3.6188662    4.1783907    1.7810710 *  1.7862140 *
  27 H       6.0832376    3.7580118    3.3664979    2.3400219 *  3.6176205  
  28 H       7.1000158    4.2236419    3.6517196    3.1160762    3.7304690  
  29 H       5.4005912    3.6675311    2.4910533 *  3.6160376    4.2293659  
  30 H       6.9023998    2.4313581 *  2.6965748 *  3.7116989    2.4888518 *
  31 H       6.2766699    3.1465250    2.2504780 *  4.2251179    3.6999346  
  32 H       7.7010404    3.6651161    3.5072607    3.6156155    2.9712930 *

               26 H         27 H         28 H         29 H         30 H     

   1 C       5.4009997    4.9119377    6.4129291    6.1667445    6.5654025  
   2 C       4.3637138    3.4629539    5.0117325    4.6722163    5.4767016  
   3 O       3.9386513    2.6452346 *  4.2830864    4.1426531    5.5346938  
   4 O       4.4568573    3.5855229    4.9574762    4.2866794    4.7441400  
   5 C       4.2664148    2.8391365 *  4.0882865    3.0489203    4.1360014  
   6 C       5.7253572    4.1163411    5.2740241    3.8613672    5.0234962  
   7 C       6.2474974    4.2873160    5.1810011    3.4752232    5.3044806  
   8 O       5.7345535    3.6839832    4.2920038    2.5086008 *  4.8460383  
   9 O       7.5839761    5.5689754    6.4435752    4.6873655    6.4624542  
  10 C       3.4511875    2.8673195 *  3.4354932    2.6306558 *  2.6175686 *
  11 N       2.1204867 *  2.1311211 *  2.1223584 *  2.1323582 *  2.1323695 *
  12 C       1.0912924 *  2.6004630 *  2.7565393 *  3.4026875    2.7132825 *
  13 C       2.6852948 *  1.0895409 *  1.0908825 *  1.0907330 *  3.4070440  
  14 C       2.6375551 *  3.3927075    2.5716017 *  2.7760326 *  1.0913534 *
  15 H       5.4135223    5.4170297    6.7412336    6.5516916    6.3229027  
  16 H       5.5478820    5.1745349    6.6575261    6.6391982    7.1563133  
  17 H       6.3642737    5.5341958    7.1375695    6.6632395    7.2991392  
  18 H       4.2221789    2.1119509 *  3.6223224    2.5787829 *  4.6152589  
  19 H       6.0766878    4.9156391    5.9022981    4.5646312    4.9373638  
  20 H       6.4014903    4.6168182    5.9990063    4.6291595    6.0210614  
  21 H       8.0010919    6.0832376    7.1000158    5.4005912    6.9023998  
  22 H       3.6188662    3.7580118    4.2236419    3.6675311    2.4313581 *
  23 H       4.1783907    3.3664979    3.6517196    2.4910533 *  2.6965748 *
  24 H       1.7810710 *  2.3400219 *  3.1160762    3.6160376    3.7116989  
  25 H       1.7862140 *  3.6176205    3.7304690    4.2293659    2.4888518 *
  26 H       0.0000000    2.8986932 *  2.5232763 *  3.7115900    3.0329316  
  27 H       2.8986932 *  0.0000000    1.7834233 *  1.7931555 *  4.2287694  
  28 H       2.5232763 *  1.7834233 *  0.0000000    1.7976753 *  3.6059959  
  29 H       3.7115900    1.7931555 *  1.7976753 *  0.0000000    3.7286816  
  30 H       3.0329316    4.2287694    3.6059959    3.7286816    0.0000000  
  31 H       3.6146091    3.6851462    2.8090002 *  2.5170117 *  1.7902911 *
  32 H       2.3406221 *  3.6222698    2.3617667 *  3.2050986    1.7861698 *

               31 H         32 H     

   1 C       7.1555979    7.0733664  
   2 C       5.8285674    5.8457392  
   3 O       5.6525409    5.5242866  
   4 O       5.1025025    5.4466099  
   5 C       4.0447060    4.7189107  
   6 C       4.7437701    5.8159728  
   7 C       4.5154875    5.8793689  
   8 O       3.7282258    5.1233620  
   9 O       5.6283668    7.1126267  
  10 C       2.6864309 *  3.3976738  
  11 N       2.1310741 *  2.1281865 *
  12 C       3.3982058    2.6262712 *
  13 C       2.6435598 *  2.7056282 *
  14 C       1.0908553 *  1.0906453 *
  15 H       7.1603187    7.0345230  
  16 H       7.7473196    7.4608801  
  17 H       7.7760254    7.8887795  
  18 H       4.2352482    4.7978191  
  19 H       4.9031663    6.0337269  
  20 H       5.7809837    6.7540673  
  21 H       6.2766699    7.7010404  
  22 H       3.1465250    3.6651161  
  23 H       2.2504780 *  3.5072607  
  24 H       4.2251179    3.6156155  
  25 H       3.6999346    2.9712930 *
  26 H       3.6146091    2.3406221 *
  27 H       3.6851462    3.6222698  
  28 H       2.8090002 *  2.3617667 *
  29 H       2.5170117 *  3.2050986  
  30 H       1.7902911 *  1.7861698 *
  31 H       0.0000000    1.7867343 *
  32 H       1.7867343 *  0.0000000  

  * ... LESS THAN  3.000


     ATOMIC BASIS SET
     ----------------
 THE CONTRACTED PRIMITIVE FUNCTIONS HAVE BEEN UNNORMALIZED
 THE CONTRACTED BASIS FUNCTIONS ARE NOW NORMALIZED TO UNITY

  SHELL TYPE  PRIMITIVE        EXPONENT          CONTRACTION COEFFICIENT(S)

 C         

      1   S       1          3047.5248800    0.001834737132
      1   S       2           457.3695180    0.014037322813
      1   S       3           103.9486850    0.068842622264
      1   S       4            29.2101553    0.232184443216
      1   S       5             9.2866630    0.467941348435
      1   S       6             3.1639270    0.362311985337

      2   L       7             7.8682723   -0.119332419775    0.068999066591
      2   L       8             1.8812885   -0.160854151696    0.316423960957
      2   L       9             0.5442493    1.143456437840    0.744308290898

      3   L      10             0.1687145    1.000000000000    1.000000000000

      4   D      11             0.8000000    1.000000000000

 C         

      5   S      12          3047.5248800    0.001834737132
      5   S      13           457.3695180    0.014037322813
      5   S      14           103.9486850    0.068842622264
      5   S      15            29.2101553    0.232184443216
      5   S      16             9.2866630    0.467941348435
      5   S      17             3.1639270    0.362311985337

      6   L      18             7.8682723   -0.119332419775    0.068999066591
      6   L      19             1.8812885   -0.160854151696    0.316423960957
      6   L      20             0.5442493    1.143456437840    0.744308290898

      7   L      21             0.1687145    1.000000000000    1.000000000000

      8   D      22             0.8000000    1.000000000000

 O         

      9   S      23          5484.6716600    0.001831074430
      9   S      24           825.2349460    0.013950172200
      9   S      25           188.0469580    0.068445078098
      9   S      26            52.9645000    0.232714335992
      9   S      27            16.8975704    0.470192897984
      9   S      28             5.7996353    0.358520852987

     10   L      29            15.5396162   -0.110777549525    0.070874268231
     10   L      30             3.5999336   -0.148026262701    0.339752839147
     10   L      31             1.0137618    1.130767015354    0.727158577316

     11   L      32             0.2700058    1.000000000000    1.000000000000

     12   D      33             0.8000000    1.000000000000

 O         

     13   S      34          5484.6716600    0.001831074430
     13   S      35           825.2349460    0.013950172200
     13   S      36           188.0469580    0.068445078098
     13   S      37            52.9645000    0.232714335992
     13   S      38            16.8975704    0.470192897984
     13   S      39             5.7996353    0.358520852987

     14   L      40            15.5396162   -0.110777549525    0.070874268231
     14   L      41             3.5999336   -0.148026262701    0.339752839147
     14   L      42             1.0137618    1.130767015354    0.727158577316

     15   L      43             0.2700058    1.000000000000    1.000000000000

     16   D      44             0.8000000    1.000000000000

 C         

     17   S      45          3047.5248800    0.001834737132
     17   S      46           457.3695180    0.014037322813
     17   S      47           103.9486850    0.068842622264
     17   S      48            29.2101553    0.232184443216
     17   S      49             9.2866630    0.467941348435
     17   S      50             3.1639270    0.362311985337

     18   L      51             7.8682723   -0.119332419775    0.068999066591
     18   L      52             1.8812885   -0.160854151696    0.316423960957
     18   L      53             0.5442493    1.143456437840    0.744308290898

     19   L      54             0.1687145    1.000000000000    1.000000000000

     20   D      55             0.8000000    1.000000000000

 C         

     21   S      56          3047.5248800    0.001834737132
     21   S      57           457.3695180    0.014037322813
     21   S      58           103.9486850    0.068842622264
     21   S      59            29.2101553    0.232184443216
     21   S      60             9.2866630    0.467941348435
     21   S      61             3.1639270    0.362311985337

     22   L      62             7.8682723   -0.119332419775    0.068999066591
     22   L      63             1.8812885   -0.160854151696    0.316423960957
     22   L      64             0.5442493    1.143456437840    0.744308290898

     23   L      65             0.1687145    1.000000000000    1.000000000000

     24   D      66             0.8000000    1.000000000000

 C         

     25   S      67          3047.5248800    0.001834737132
     25   S      68           457.3695180    0.014037322813
     25   S      69           103.9486850    0.068842622264
     25   S      70            29.2101553    0.232184443216
     25   S      71             9.2866630    0.467941348435
     25   S      72             3.1639270    0.362311985337

     26   L      73             7.8682723   -0.119332419775    0.068999066591
     26   L      74             1.8812885   -0.160854151696    0.316423960957
     26   L      75             0.5442493    1.143456437840    0.744308290898

     27   L      76             0.1687145    1.000000000000    1.000000000000

     28   D      77             0.8000000    1.000000000000

 O         

     29   S      78          5484.6716600    0.001831074430
     29   S      79           825.2349460    0.013950172200
     29   S      80           188.0469580    0.068445078098
     29   S      81            52.9645000    0.232714335992
     29   S      82            16.8975704    0.470192897984
     29   S      83             5.7996353    0.358520852987

     30   L      84            15.5396162   -0.110777549525    0.070874268231
     30   L      85             3.5999336   -0.148026262701    0.339752839147
     30   L      86             1.0137618    1.130767015354    0.727158577316

     31   L      87             0.2700058    1.000000000000    1.000000000000

     32   D      88             0.8000000    1.000000000000

 O         

     33   S      89          5484.6716600    0.001831074430
     33   S      90           825.2349460    0.013950172200
     33   S      91           188.0469580    0.068445078098
     33   S      92            52.9645000    0.232714335992
     33   S      93            16.8975704    0.470192897984
     33   S      94             5.7996353    0.358520852987

     34   L      95            15.5396162   -0.110777549525    0.070874268231
     34   L      96             3.5999336   -0.148026262701    0.339752839147
     34   L      97             1.0137618    1.130767015354    0.727158577316

     35   L      98             0.2700058    1.000000000000    1.000000000000

     36   D      99             0.8000000    1.000000000000

 C         

     37   S     100          3047.5248800    0.001834737132
     37   S     101           457.3695180    0.014037322813
     37   S     102           103.9486850    0.068842622264
     37   S     103            29.2101553    0.232184443216
     37   S     104             9.2866630    0.467941348435
     37   S     105             3.1639270    0.362311985337

     38   L     106             7.8682723   -0.119332419775    0.068999066591
     38   L     107             1.8812885   -0.160854151696    0.316423960957
     38   L     108             0.5442493    1.143456437840    0.744308290898

     39   L     109             0.1687145    1.000000000000    1.000000000000

     40   D     110             0.8000000    1.000000000000

 N         

     41   S     111          4173.5114600    0.001834772160
     41   S     112           627.4579110    0.013994627002
     41   S     113           142.9020930    0.068586551812
     41   S     114            40.2343293    0.232240873040
     41   S     115            12.8202129    0.469069948082
     41   S     116             4.3904370    0.360455199063

     42   L     117            11.6263619   -0.114961181702    0.067579743878
     42   L     118             2.7162798   -0.169117478561    0.323907295893
     42   L     119             0.7722184    1.145851947027    0.740895139755

     43   L     120             0.2120315    1.000000000000    1.000000000000

     44   D     121             0.8000000    1.000000000000

 C         

     45   S     122          3047.5248800    0.001834737132
     45   S     123           457.3695180    0.014037322813
     45   S     124           103.9486850    0.068842622264
     45   S     125            29.2101553    0.232184443216
     45   S     126             9.2866630    0.467941348435
     45   S     127             3.1639270    0.362311985337

     46   L     128             7.8682723   -0.119332419775    0.068999066591
     46   L     129             1.8812885   -0.160854151696    0.316423960957
     46   L     130             0.5442493    1.143456437840    0.744308290898

     47   L     131             0.1687145    1.000000000000    1.000000000000

     48   D     132             0.8000000    1.000000000000

 C         

     49   S     133          3047.5248800    0.001834737132
     49   S     134           457.3695180    0.014037322813
     49   S     135           103.9486850    0.068842622264
     49   S     136            29.2101553    0.232184443216
     49   S     137             9.2866630    0.467941348435
     49   S     138             3.1639270    0.362311985337

     50   L     139             7.8682723   -0.119332419775    0.068999066591
     50   L     140             1.8812885   -0.160854151696    0.316423960957
     50   L     141             0.5442493    1.143456437840    0.744308290898

     51   L     142             0.1687145    1.000000000000    1.000000000000

     52   D     143             0.8000000    1.000000000000

 C         

     53   S     144          3047.5248800    0.001834737132
     53   S     145           457.3695180    0.014037322813
     53   S     146           103.9486850    0.068842622264
     53   S     147            29.2101553    0.232184443216
     53   S     148             9.2866630    0.467941348435
     53   S     149             3.1639270    0.362311985337

     54   L     150             7.8682723   -0.119332419775    0.068999066591
     54   L     151             1.8812885   -0.160854151696    0.316423960957
     54   L     152             0.5442493    1.143456437840    0.744308290898

     55   L     153             0.1687145    1.000000000000    1.000000000000

     56   D     154             0.8000000    1.000000000000

 H         

     57   S     155            18.7311370    0.033494604338
     57   S     156             2.8253944    0.234726953484
     57   S     157             0.6401217    0.813757326146

     58   S     158             0.1612778    1.000000000000

 H         

     59   S     159            18.7311370    0.033494604338
     59   S     160             2.8253944    0.234726953484
     59   S     161             0.6401217    0.813757326146

     60   S     162             0.1612778    1.000000000000

 H         

     61   S     163            18.7311370    0.033494604338
     61   S     164             2.8253944    0.234726953484
     61   S     165             0.6401217    0.813757326146

     62   S     166             0.1612778    1.000000000000

 H         

     63   S     167            18.7311370    0.033494604338
     63   S     168             2.8253944    0.234726953484
     63   S     169             0.6401217    0.813757326146

     64   S     170             0.1612778    1.000000000000

 H         

     65   S     171            18.7311370    0.033494604338
     65   S     172             2.8253944    0.234726953484
     65   S     173             0.6401217    0.813757326146

     66   S     174             0.1612778    1.000000000000

 H         

     67   S     175            18.7311370    0.033494604338
     67   S     176             2.8253944    0.234726953484
     67   S     177             0.6401217    0.813757326146

     68   S     178             0.1612778    1.000000000000

 H         

     69   S     179            18.7311370    0.033494604338
     69   S     180             2.8253944    0.234726953484
     69   S     181             0.6401217    0.813757326146

     70   S     182             0.1612778    1.000000000000

 H         

     71   S     183            18.7311370    0.033494604338
     71   S     184             2.8253944    0.234726953484
     71   S     185             0.6401217    0.813757326146

     72   S     186             0.1612778    1.000000000000

 H         

     73   S     187            18.7311370    0.033494604338
     73   S     188             2.8253944    0.234726953484
     73   S     189             0.6401217    0.813757326146

     74   S     190             0.1612778    1.000000000000

 H         

     75   S     191            18.7311370    0.033494604338
     75   S     192             2.8253944    0.234726953484
     75   S     193             0.6401217    0.813757326146

     76   S     194             0.1612778    1.000000000000

 H         

     77   S     195            18.7311370    0.033494604338
     77   S     196             2.8253944    0.234726953484
     77   S     197             0.6401217    0.813757326146

     78   S     198             0.1612778    1.000000000000

 H         

     79   S     199            18.7311370    0.033494604338
     79   S     200             2.8253944    0.234726953484
     79   S     201             0.6401217    0.813757326146

     80   S     202             0.1612778    1.000000000000

 H         

     81   S     203            18.7311370    0.033494604338
     81   S     204             2.8253944    0.234726953484
     81   S     205             0.6401217    0.813757326146

     82   S     206             0.1612778    1.000000000000

 H         

     83   S     207            18.7311370    0.033494604338
     83   S     208             2.8253944    0.234726953484
     83   S     209             0.6401217    0.813757326146

     84   S     210             0.1612778    1.000000000000

 H         

     85   S     211            18.7311370    0.033494604338
     85   S     212             2.8253944    0.234726953484
     85   S     213             0.6401217    0.813757326146

     86   S     214             0.1612778    1.000000000000

 H         

     87   S     215            18.7311370    0.033494604338
     87   S     216             2.8253944    0.234726953484
     87   S     217             0.6401217    0.813757326146

     88   S     218             0.1612778    1.000000000000

 H         

     89   S     219            18.7311370    0.033494604338
     89   S     220             2.8253944    0.234726953484
     89   S     221             0.6401217    0.813757326146

     90   S     222             0.1612778    1.000000000000

 H         

     91   S     223            18.7311370    0.033494604338
     91   S     224             2.8253944    0.234726953484
     91   S     225             0.6401217    0.813757326146

     92   S     226             0.1612778    1.000000000000

 TOTAL NUMBER OF BASIS SET SHELLS             =   92
 NUMBER OF CARTESIAN GAUSSIAN BASIS FUNCTIONS =  246
 NUMBER OF ELECTRONS                          =  110
 CHARGE OF MOLECULE                           =    1
 SPIN MULTIPLICITY                            =    1
 NUMBER OF OCCUPIED ORBITALS (ALPHA)          =   55
 NUMBER OF OCCUPIED ORBITALS (BETA )          =   55
 TOTAL NUMBER OF ATOMS                        =   32
 THE NUCLEAR REPULSION ENERGY IS     1014.4130501005

     LEBEDEV GRID-BASED DFT OPTIONS
     ------------------------------
     DFTTYP=B3LYPV1R
     NRAD  =      96     NLEB  =     302
     NRAD0 =      24     NLEB0 =     110
     SWOFF =    5.00E-03 (PURE SCF -> DFT)
     SWITCH=    3.00E-04 (COARSE -> TIGHT GRID)
     THRESH=    0.00E+00 GTHRE=    1.00E+00

 GRIMME'S EMPIRICAL DISPERSION CORRECTION= F

     $CONTRL OPTIONS
     ---------------
 SCFTYP=RHF          RUNTYP=OPTIMIZE     EXETYP=RUN     
 MPLEVL=       0     CITYP =NONE         CCTYP =NONE         VBTYP =NONE    
 DFTTYP=B3LYPV1R     TDDFT =NONE    
 MULT  =       1     ICHARG=       1     NZVAR =       0     COORD =UNIQUE  
 PP    =NONE         RELWFN=NONE         LOCAL =NONE         NUMGRD=       F
 ISPHER=      -1     NOSYM =       0     MAXIT =      30     UNITS =ANGS    
 PLTORB=       F     MOLPLT=       F     AIMPAC=       F     FRIEND=        
 NPRINT=       7     IREST =       0     GEOM  =INPUT   
 NORMF =       0     NORMP =       0     ITOL  =      20     ICUT  =       9
 INTTYP=BEST         GRDTYP=BEST         QMTTOL= 1.0E-06

     $SYSTEM OPTIONS
     ---------------
  REPLICATED MEMORY=   200000000 WORDS (ON EVERY NODE).
 DISTRIBUTED MEMDDI=           0 MILLION WORDS IN AGGREGATE,
 MEMDDI DISTRIBUTED OVER   2 PROCESSORS IS           0 WORDS/PROCESSOR.
 TOTAL MEMORY REQUESTED ON EACH PROCESSOR=   200000000 WORDS.
 TIMLIM= 99999999999.00 MINUTES, OR ********* DAYS.
 PARALL= T  BALTYP=  DLB     KDIAG=    0  COREFL= F
 MXSEQ2=     300 MXSEQ3=     150

          ----------------
          PROPERTIES INPUT
          ----------------

     MOMENTS            FIELD           POTENTIAL          DENSITY
 IEMOM =       1   IEFLD =       0   IEPOT =       0   IEDEN =       0
 WHERE =COMASS     WHERE =NUCLEI     WHERE =NUCLEI     WHERE =NUCLEI  
 OUTPUT=BOTH       OUTPUT=BOTH       OUTPUT=BOTH       OUTPUT=BOTH    
 IEMINT=       0   IEFINT=       0                     IEDINT=       0
                                                       MORB  =       0
          EXTRAPOLATION IN EFFECT
          DIIS IN EFFECT
 ORBITAL PRINTING OPTION: NPREO=     1   246     2     1

     -------------------------------
     INTEGRAL TRANSFORMATION OPTIONS
     -------------------------------
     NWORD  =            0
     CUTOFF = 1.0E-09     MPTRAN =       0
     DIRTRF =       T     AOINTS =DUP     

          ----------------------
          INTEGRAL INPUT OPTIONS
          ----------------------
 NOPK  =       1 NORDER=       0 SCHWRZ=       T

     ------------------------------------------
     THE POINT GROUP IS C1 , NAXIS= 0, ORDER= 1
     ------------------------------------------

     DIMENSIONS OF THE SYMMETRY SUBSPACES ARE
 A   =  246

 ..... DONE SETTING UP THE RUN .....
 CPU     0: STEP CPU TIME=     0.09 TOTAL CPU TIME=        0.1 (    0.0 MIN)
 TOTAL WALL CLOCK TIME=        0.1 SECONDS, CPU UTILIZATION IS  64.29%


          -----------------------------
          STATIONARY POINT LOCATION RUN
          -----------------------------

 OBTAINING INITIAL HESSIAN, HESS=GUESS   
 CARTESIAN COORDINATE OPTIMIZATION USING BADGER'S RULE FORCE CONSTANT GUESS

          PARAMETERS CONTROLLING GEOMETRY SEARCH ARE
          METHOD =QA                  UPHESS =BFGS    
          NNEG   =         0          NFRZ   =         0
          NSTEP  =         3          IFOLOW =         1
          HESS   =GUESS               RESTAR =         F
          IHREP  =         0          HSSEND =         F
          NPRT   =         0          NPUN   =         0
          OPTTOL = 5.000E-04          RMIN   = 1.500E-03
          RMAX   = 1.000E-01          RLIM   = 7.000E-02
          DXMAX  = 3.000E-01          PURIFY =         F
          MOVIE  =         F          TRUPD  =         T
          TRMAX  = 5.000E-01          TRMIN  = 5.000E-02
          ITBMAT =         5          STPT   =         F
          STSTEP = 1.000E-02          PROJCT=          T

 BEGINNING GEOMETRY SEARCH POINT NSERCH=   0 ...

 COORDINATES OF ALL ATOMS ARE (ANGS)
   ATOM   CHARGE       X              Y              Z
 ------------------------------------------------------------
 C           6.0   0.8534969865   3.6892102868  -0.1689540401
 C           6.0   2.0554171317   2.8746380670   0.2152279150
 O           8.0   2.1532149537   2.1476716139   1.1811928829
 O           8.0   3.0817447150   3.0517547295  -0.6760112910
 C           6.0   4.2098410350   2.1614823930  -0.5762083766
 C           6.0   4.4781832727   1.6329798205  -1.9953196788
 C           6.0   5.4882629656   0.4856484077  -1.9869822477
 O           8.0   6.1222085304   0.1724709500  -1.0021522002
 O           8.0   5.6653942994  -0.1692886517  -3.1428276227
 C           6.0   5.4470421623   2.8966206694  -0.0388143131
 N           7.0   5.6821616267   2.8975592887   1.4761440037
 C           6.0   4.7532042338   3.8455100242   2.1929328868
 C           6.0   5.5291488140   1.5081777399   2.0610795625
 C           6.0   7.1036212117   3.3596056177   1.6943182379
 H           1.0   1.1436304947   4.7132210891  -0.4213956619
 H           1.0   0.1339966493   3.6853495272   0.6499256941
 H           1.0   0.3886057292   3.2532996775  -1.0605742676
 H           1.0   3.9379845944   1.3211870193   0.0609253938
 H           1.0   4.8357343801   2.4354692753  -2.6551506116
 H           1.0   3.5259347549   1.2884205318  -2.4152003773
 H           1.0   5.0860713314   0.1682494558  -3.8478525652
 H           1.0   5.4211995242   3.9443940061  -0.3494982900
 H           1.0   6.3333849713   2.4169767007  -0.4496266950
 H           1.0   3.7322418788   3.4832916161   2.0923387258
 H           1.0   4.8633105445   4.8418393315   1.7615170532
 H           1.0   5.0328374250   3.8654318858   3.2476023176
 H           1.0   4.4686198237   1.2621866387   2.1042760414
 H           1.0   5.9462514964   1.5200747452   3.0690024177
 H           1.0   6.0628993731   0.8000677717   1.4259504502
 H           1.0   7.2382523996   4.3325802409   1.2186639003
 H           1.0   7.7847810802   2.6281864120   1.2572684916
 H           1.0   7.2841802631   3.4427034343   2.7666989550

          ********************
          1 ELECTRON INTEGRALS
          ********************
 ...... END OF ONE-ELECTRON INTEGRALS ......
 CPU     0: STEP CPU TIME=     0.09 TOTAL CPU TIME=        0.2 (    0.0 MIN)
 TOTAL WALL CLOCK TIME=        0.2 SECONDS, CPU UTILIZATION IS  72.00%

          -------------
          GUESS OPTIONS
          -------------
          GUESS =HUCKEL            NORB  =       0          NORDER=       0
          MIX   =       F          PRTMO =       F          PUNMO =       F
          TOLZ  = 1.0E-08          TOLE  = 1.0E-05
          SYMDEN=       F          PURIFY=       F

 INITIAL GUESS ORBITALS GENERATED BY HUCKEL   ROUTINE.
 HUCKEL GUESS REQUIRES    492704 WORDS.

 SYMMETRIES FOR INITIAL GUESS ORBITALS FOLLOW.   BOTH SET(S).
    55 ORBITALS ARE OCCUPIED (   14 CORE ORBITALS).
    15=A       16=A       17=A       18=A       19=A       20=A       21=A   
    22=A       23=A       24=A       25=A       26=A       27=A       28=A   
    29=A       30=A       31=A       32=A       33=A       34=A       35=A   
    36=A       37=A       38=A       39=A       40=A       41=A       42=A   
    43=A       44=A       45=A       46=A       47=A       48=A       49=A   
    50=A       51=A       52=A       53=A       54=A       55=A       56=A   
    57=A       58=A       59=A       60=A       61=A       62=A       63=A   
    64=A       65=A   
 ...... END OF INITIAL ORBITAL SELECTION ......
 CPU     0: STEP CPU TIME=     0.26 TOTAL CPU TIME=        0.4 (    0.0 MIN)
 TOTAL WALL CLOCK TIME=        0.5 SECONDS, CPU UTILIZATION IS  84.62%

                    ----------------------
                    AO INTEGRAL TECHNOLOGY
                    ----------------------
     S,P,L SHELL ROTATED AXIS INTEGRALS, REPROGRAMMED BY
        KAZUYA ISHIMURA (IMS) AND JOSE SIERRA (SYNSTAR).
     S,P,D,L SHELL ROTATED AXIS INTEGRALS PROGRAMMED BY
        KAZUYA ISHIMURA (INSTITUTE FOR MOLECULAR SCIENCE).
     S,P,D,F,G SHELL TO TOTAL QUARTET ANGULAR MOMENTUM SUM 5,
        ERIC PROGRAM BY GRAHAM FLETCHER (ELORET AND NASA ADVANCED
        SUPERCOMPUTING DIVISION, AMES RESEARCH CENTER).
     S,P,D,F,G,L SHELL GENERAL RYS QUADRATURE PROGRAMMED BY
        MICHEL DUPUIS (PACIFIC NORTHWEST NATIONAL LABORATORY).

          --------------------
          2 ELECTRON INTEGRALS
          --------------------

 DIRECT SCF METHOD SKIPS INTEGRAL STORAGE ON DISK.
 DIRECT TRANSFORMATION SKIPS AO INTEGRAL STORAGE ON DISK.
  ...... END OF TWO-ELECTRON INTEGRALS .....
 CPU     0: STEP CPU TIME=     0.02 TOTAL CPU TIME=        0.5 (    0.0 MIN)
 TOTAL WALL CLOCK TIME=        0.5 SECONDS, CPU UTILIZATION IS  85.19%

          --------------------------
          R-B3LYPV1R SCF CALCULATION
          --------------------------

     NUCLEAR ENERGY =      1014.4130501005
     MAXIT =   30     NPUNCH=    2
     EXTRAP=T  DAMP=F  SHIFT=F  RSTRCT=F  DIIS=T  DEM=F  SOSCF=F
         DENSITY MATRIX CONVERGENCE THRESHOLD=  2.00E-05
     COARSE -> FINE DFT GRID SWITCH THRESHOLD=  3.00E-04 (SWITCH IN $DFT)
                   HF -> DFT SWITCH THRESHOLD=  5.00E-03 (SWOFF IN $DFT)
     MEMORY REQUIRED FOR RHF ITERS=   1531277 WORDS.

 DIRECT SCF CALCULATION, SCHWRZ=T   FDIFF=T,  DIRTHR=  0.00E+00 NITDIR=10
 SCHWARZ INEQUALITY OVERHEAD:     27712 INTEGRALS, T=        0.02

 DFT CODE IS SWITCHING FROM THE FINE GRID NRAD= 96,  NLEB=  302
                      TO THE COARSE GRID NRAD0= 24, NLEB0=  110

     EXCHANGE FUNCTIONAL   =B88&HFX   
     CORRELATION FUNCTIONAL=LYP88VWN1R
     DFT THRESHOLD         =.431E-08
     GRID CHANGE THRESHOLD =.300E-03
 FOR AN EULER-MACLAURIN QUADRATURE USING  96 RADIAL POINTS:
 SMALLEST GAUSSIAN PRIMITIVE EXPONENT=        0.1612777588 OF TYPE -S-
 ON ATOM NUMBER  15 HAS RADIAL NORMALIZATION=  1.000000
  LARGEST GAUSSIAN PRIMITIVE EXPONENT=     5484.6716600000 OF TYPE -S-
 ON ATOM NUMBER   3 HAS RADIAL NORMALIZATION=  1.000000
 DFT IS SWITCHED OFF, PERFORMING PURE SCF UNTIL SWOFF THRESHOLD IS REACHED.

                                                                                   NONZERO     BLOCKS
 ITER EX DEM     TOTAL ENERGY        E CHANGE  DENSITY CHANGE    DIIS ERROR      INTEGRALS    SKIPPED
          * * *   INITIATING DIIS PROCEDURE   * * *
   1  0  0     -702.6301683788  -702.6301683788   0.383261250   0.367463172      221096028    5038309
   2  1  0     -704.6507644949    -2.0205961161   0.211889322   0.102052176      221553760    5098948
   3  2  0     -704.8958184185    -0.2450539236   0.090728979   0.053176501      217565948    5294108
   4  3  0     -704.9979727647    -0.1021543463   0.019577962   0.006220843      211460118    5527651
   5  4  0     -705.0004788271    -0.0025060624   0.006327703   0.002356893      200029849    5836308
   6  5  0     -705.0009760040    -0.0004971768   0.002068189   0.000957536      192760686    5981171
 CONVERGED TO SWOFF, SO DFT CALCULATION IS NOW SWITCHED ON.
          * * *   INITIATING DIIS PROCEDURE   * * *
   7  6  0     -709.1370726385    -4.1360966345   0.157468782   0.061399705      221705806    5033583
   8  7  0     -709.2055955874    -0.0685229489   0.057241537   0.020082151      217915404    5292276
   9  8  0     -709.1990975743     0.0064980131   0.043292321   0.028550692      210015790    5535135
  10  9  0     -709.2177511929    -0.0186536187   0.011934349   0.006627416      205949602    5662427
  11 10  0     -709.2188826232    -0.0011314303   0.003059079   0.001650744      194329007    5940004
  12 11  0     -709.2189344996    -0.0000518764   0.000784727   0.000311666      177558854    6316268
  13 12  0     -709.2189380363    -0.0000035366   0.000160496   0.000093827      164253644    6545481
 DFT CODE IS SWITCHING BACK TO THE FINE GRID
          * * *   INITIATING DIIS PROCEDURE   * * *
  14 13  0     -709.2325457488    -0.0136077126   0.004105911   0.001695225      222106741    4999779
  15 14  0     -709.2326532835    -0.0001075346   0.002222768   0.000632962      193961915    5975659
  16 15  0     -709.2326441016     0.0000091818   0.001428853   0.001245732      171151965    6440603
  17 16  0     -709.2326580593    -0.0000139577   0.000208174   0.000137623      163313861    6599660
  18 17  0     -709.2326582419    -0.0000001825   0.000065866   0.000047516      145354852    6923269
  19 18  0     -709.2326582852    -0.0000000433   0.000015523   0.000007242      132803464    7161145
  20 19  0     -709.2326582863    -0.0000000011   0.000008169   0.000003827      119098223    7376202

          -----------------
          DENSITY CONVERGED
          -----------------
     TIME TO FORM FOCK OPERATORS=     481.4 SECONDS (      24.1 SEC/ITER)
     FOCK TIME ON FIRST ITERATION=      16.2, LAST ITERATION=      36.4
     TIME TO SOLVE SCF EQUATIONS=       2.2 SECONDS (       0.1 SEC/ITER)

 FINAL R-B3LYPV1R ENERGY IS     -709.2326582863 AFTER  20 ITERATIONS
 DFT EXCHANGE + CORRELATION ENERGY =       -78.1100834775
 TOTAL ELECTRON NUMBER             =       109.9998549068

          ------------
          EIGENVECTORS
          ------------

                      1          2          3          4          5
                  -19.3330   -19.3250   -19.2780   -19.2702   -14.6234
                     A          A          A          A          A   
    1  C  1  S    0.000024   0.000003   0.000011   0.000001  -0.000000
    2  C  1  S    0.000199   0.000017   0.000074   0.000009  -0.000001
    3  C  1  X    0.000058   0.000001   0.000020  -0.000005  -0.000000
    4  C  1  Y   -0.000030   0.000003  -0.000007   0.000001   0.000000
    5  C  1  Z   -0.000049  -0.000002  -0.000014  -0.000000   0.000001
    6  C  1  S   -0.000336  -0.000110  -0.000966  -0.000109  -0.000013
    7  C  1  X   -0.000214  -0.000049  -0.000739  -0.000031  -0.000001
    8  C  1  Y    0.000338   0.000018   0.000027   0.000041  -0.000001
    9  C  1  Z   -0.000005  -0.000015   0.000449  -0.000017  -0.000011
   10  C  1 XX   -0.000039  -0.000001   0.000000  -0.000001   0.000001
   11  C  1 YY    0.000012   0.000003   0.000007  -0.000001   0.000001
   12  C  1 ZZ    0.000001   0.000004   0.000024   0.000001  -0.000000
   13  C  1 XY    0.000039   0.000003  -0.000016   0.000004  -0.000001
   14  C  1 XZ    0.000009  -0.000002   0.000004  -0.000001   0.000001
   15  C  1 YZ    0.000035   0.000004  -0.000004   0.000001   0.000001
   16  C  2  S    0.000014   0.000003  -0.000011   0.000001  -0.000003
   17  C  2  S    0.000298   0.000014   0.000417   0.000004  -0.000013
   18  C  2  X    0.000301   0.000008   0.000012   0.000006  -0.000006
   19  C  2  Y    0.000051  -0.000013  -0.000005  -0.000006   0.000001
   20  C  2  Z   -0.000233   0.000002  -0.000060   0.000005  -0.000005
   21  C  2  S   -0.001254  -0.000059  -0.002484   0.000023  -0.000036
   22  C  2  X   -0.001386  -0.000131  -0.000429  -0.000123  -0.000026
   23  C  2  Y   -0.000413   0.000056   0.002356   0.000054   0.000027
   24  C  2  Z    0.001320   0.000046  -0.002953  -0.000044  -0.000005
   25  C  2 XX    0.000110   0.000006  -0.000067  -0.000006  -0.000006
   26  C  2 YY    0.000050   0.000006  -0.000371   0.000004  -0.000005
   27  C  2 ZZ    0.000185  -0.000002  -0.000572  -0.000002  -0.000002
   28  C  2 XY    0.000047  -0.000004   0.000068  -0.000007   0.000002
   29  C  2 XZ   -0.000131   0.000012  -0.000105   0.000009  -0.000001
   30  C  2 YZ   -0.000108   0.000009   0.000432   0.000005  -0.000001
   31  O  3  S   -0.000051  -0.000000   0.992688   0.000013  -0.000006
   32  O  3  S    0.000179   0.000006   0.025522   0.000004  -0.000027
   33  O  3  X   -0.000042  -0.000001  -0.000060   0.000003  -0.000006
   34  O  3  Y    0.000002   0.000002   0.000682   0.000001  -0.000002
   35  O  3  Z    0.000021  -0.000002  -0.000963  -0.000002   0.000003
   36  O  3  S   -0.000898  -0.000012   0.014885   0.000016   0.000117
   37  O  3  X    0.000335   0.000014   0.000071   0.000000   0.000030
   38  O  3  Y   -0.000248  -0.000008   0.001037   0.000005   0.000016
   39  O  3  Z    0.000173  -0.000006  -0.001327  -0.000001  -0.000029
   40  O  3 XX    0.000076   0.000005  -0.008301   0.000001  -0.000015
   41  O  3 YY    0.000080   0.000006  -0.008143   0.000008  -0.000022
   42  O  3 ZZ    0.000023   0.000009  -0.007982   0.000005  -0.000016
   43  O  3 XY    0.000031   0.000003  -0.000019   0.000002   0.000002
   44  O  3 XZ    0.000004   0.000001   0.000027   0.000002  -0.000004
   45  O  3 YZ    0.000095   0.000000  -0.000302   0.000001  -0.000004
   46  O  4  S    0.992662   0.000083   0.000093   0.000012  -0.000007
   47  O  4  S    0.025705   0.000129   0.000049   0.000014  -0.000033
   48  O  4  X    0.000055   0.000020  -0.000061  -0.000002  -0.000004
   49  O  4  Y   -0.000588  -0.000007   0.000036  -0.000014   0.000002
   50  O  4  Z    0.000619  -0.000003  -0.000017  -0.000012  -0.000003
   51  O  4  S    0.013465  -0.000779  -0.000294   0.000066   0.000171
   52  O  4  X   -0.000255  -0.000335   0.000660   0.000051   0.000050
   53  O  4  Y   -0.000179   0.000183  -0.000358   0.000038  -0.000024
   54  O  4  Z    0.000254   0.000042   0.000100   0.000030   0.000057
   55  O  4 XX   -0.008425   0.000044   0.000085   0.000028  -0.000014
   56  O  4 YY   -0.008371   0.000062   0.000013   0.000008  -0.000026
   57  O  4 ZZ   -0.008354   0.000094  -0.000032   0.000017  -0.000013
   58  O  4 XY    0.000043   0.000032  -0.000055   0.000023   0.000002
   59  O  4 XZ    0.000039  -0.000004   0.000024  -0.000011   0.000007
   60  O  4 YZ    0.000039   0.000003   0.000023  -0.000003  -0.000009
   61  C  5  S   -0.000016  -0.000000  -0.000003   0.000036   0.000019
   62  C  5  S    0.000022  -0.000046   0.000018   0.000126   0.000105
   63  C  5  X   -0.000236   0.000036   0.000031   0.000057   0.000011
   64  C  5  Y    0.000259  -0.000047  -0.000016   0.000010  -0.000001
   65  C  5  Z   -0.000061  -0.000030   0.000056  -0.000009   0.000024
   66  C  5  S   -0.000900   0.000934  -0.000226  -0.001142  -0.000452
   67  C  5  X    0.000732  -0.000525   0.000078  -0.000246  -0.000113
   68  C  5  Y   -0.000364   0.000556  -0.000595  -0.000183  -0.000105
   69  C  5  Z    0.000281  -0.000377  -0.000095   0.000668  -0.000269
   70  C  5 XX    0.000218   0.000042  -0.000049   0.000085   0.000013
   71  C  5 YY    0.000164   0.000017  -0.000059   0.000084   0.000020
   72  C  5 ZZ    0.000038   0.000040   0.000030   0.000025   0.000013
   73  C  5 XY   -0.000207  -0.000035   0.000058  -0.000027  -0.000012
   74  C  5 XZ    0.000065   0.000020  -0.000026   0.000008  -0.000018
   75  C  5 YZ   -0.000037  -0.000002   0.000016  -0.000007  -0.000003
   76  C  6  S   -0.000000   0.000030   0.000003  -0.000001  -0.000000
   77  C  6  S    0.000066   0.000209   0.000029   0.000034   0.000002
   78  C  6  X   -0.000055  -0.000034   0.000012   0.000011  -0.000007
   79  C  6  Y    0.000062   0.000049   0.000004  -0.000023  -0.000002
   80  C  6  Z    0.000022   0.000030  -0.000022  -0.000009  -0.000000
   81  C  6  S    0.000745  -0.001527  -0.000204  -0.000242  -0.000067
   82  C  6  X    0.000565  -0.000158  -0.000027  -0.000327   0.000070
   83  C  6  Y   -0.000627  -0.000044   0.000058   0.000857  -0.000000
   84  C  6  Z    0.000015  -0.000689  -0.000040   0.001041  -0.000040
   85  C  6 XX   -0.000036   0.000010  -0.000006  -0.000036  -0.000005
   86  C  6 YY   -0.000007   0.000005   0.000006  -0.000030   0.000003
   87  C  6 ZZ   -0.000029  -0.000012  -0.000019   0.000030  -0.000001
   88  C  6 XY    0.000012   0.000062   0.000006   0.000024   0.000000
   89  C  6 XZ    0.000034  -0.000007   0.000008   0.000000   0.000002
   90  C  6 YZ   -0.000038  -0.000010   0.000004   0.000011   0.000000
   91  C  7  S    0.000028  -0.000017   0.000003   0.000000  -0.000001
   92  C  7  S    0.000115   0.000330   0.000008   0.000438  -0.000001
   93  C  7  X    0.000006   0.000115   0.000004   0.000009   0.000001
   94  C  7  Y    0.000000  -0.000252   0.000007  -0.000041  -0.000004
   95  C  7  Z    0.000003  -0.000314   0.000003  -0.000033  -0.000000
   96  C  7  S   -0.000804  -0.002016   0.000091  -0.002701  -0.000017
   97  C  7  X    0.000498  -0.000967  -0.000032  -0.002139   0.000005
   98  C  7  Y   -0.000629   0.001961  -0.000035   0.001195   0.000013
   99  C  7  Z   -0.000054   0.002280  -0.000114  -0.003063   0.000083
  100  C  7 XX    0.000039  -0.000034   0.000004  -0.000255  -0.000001
  101  C  7 YY    0.000040  -0.000033   0.000008  -0.000077  -0.000007
  102  C  7 ZZ    0.000039  -0.000098   0.000009  -0.000601  -0.000005
  103  C  7 XY    0.000020  -0.000020  -0.000000   0.000092  -0.000001
  104  C  7 XZ   -0.000001  -0.000012   0.000002  -0.000404   0.000003
  105  C  7 YZ   -0.000013  -0.000013   0.000003   0.000194  -0.000004
  106  O  8  S    0.000006  -0.000038  -0.000010   0.992687  -0.000001
  107  O  8  S    0.000053   0.000051   0.000005   0.025523  -0.000001
  108  O  8  X   -0.000007  -0.000026  -0.000003  -0.000629  -0.000000
  109  O  8  Y   -0.000008   0.000034   0.000004   0.000318  -0.000002
  110  O  8  Z   -0.000004   0.000019   0.000002  -0.000970  -0.000002
  111  O  8  S   -0.000258  -0.000009   0.000007   0.014984  -0.000024
  112  O  8  X    0.000011   0.000227   0.000008  -0.000905   0.000014
  113  O  8  Y    0.000084  -0.000335  -0.000006   0.000522   0.000000
  114  O  8  Z    0.000103  -0.000247   0.000003  -0.001281   0.000014
  115  O  8 XX    0.000044   0.000002   0.000006  -0.008192  -0.000005
  116  O  8 YY    0.000052  -0.000010   0.000006  -0.008279  -0.000003
  117  O  8 ZZ    0.000013  -0.000055   0.000003  -0.007964  -0.000001
  118  O  8 XY    0.000006   0.000036   0.000005  -0.000098  -0.000000
  119  O  8 XZ   -0.000006  -0.000013  -0.000003   0.000262  -0.000001
  120  O  8 YZ   -0.000016  -0.000027  -0.000002  -0.000113   0.000003
  121  O  9  S   -0.000048   0.992683   0.000007   0.000053  -0.000003
  122  O  9  S    0.000033   0.025689   0.000024   0.000103  -0.000014
  123  O  9  X    0.000008  -0.000703  -0.000001  -0.000038   0.000001
  124  O  9  Y   -0.000005   0.000766   0.000000   0.000037  -0.000000
  125  O  9  Z    0.000016   0.000012   0.000002  -0.000021  -0.000001
  126  O  9  S   -0.000178   0.013829  -0.000142  -0.000524   0.000084
  127  O  9  X   -0.000081   0.000063   0.000014   0.000336  -0.000006
  128  O  9  Y    0.000049   0.000386  -0.000024  -0.000345   0.000016
  129  O  9  Z   -0.000133   0.001143  -0.000042   0.000098   0.000023
  130  O  9 XX    0.000033  -0.008273   0.000016   0.000021  -0.000009
  131  O  9 YY    0.000034  -0.008255   0.000014   0.000047  -0.000009
  132  O  9 ZZ    0.000007  -0.008176   0.000010  -0.000029  -0.000006
  133  O  9 XY   -0.000003   0.000037   0.000001   0.000010  -0.000001
  134  O  9 XZ   -0.000005  -0.000021   0.000003  -0.000058  -0.000001
  135  O  9 YZ   -0.000002   0.000051  -0.000004   0.000025   0.000003
  136  C 10  S    0.000031   0.000001  -0.000007   0.000005  -0.000020
  137  C 10  S    0.000200  -0.000001  -0.000031  -0.000017  -0.000095
  138  C 10  X   -0.000101   0.000000   0.000013  -0.000023   0.000028
  139  C 10  Y   -0.000011  -0.000021  -0.000005  -0.000088  -0.000006
  140  C 10  Z   -0.000016  -0.000003   0.000005  -0.000000   0.000239
  141  C 10  S   -0.000674   0.000102   0.000310   0.000294   0.000239
  142  C 10  X    0.000524   0.000202  -0.000291  -0.000030  -0.000110
  143  C 10  Y    0.000131  -0.000107   0.000081   0.000263  -0.000070
  144  C 10  Z   -0.000263   0.000058  -0.000060  -0.000423  -0.000026
  145  C 10 XX   -0.000016  -0.000020   0.000012   0.000015  -0.000014
  146  C 10 YY    0.000021   0.000017  -0.000024   0.000063  -0.000038
  147  C 10 ZZ    0.000036   0.000016  -0.000008   0.000006   0.000274
  148  C 10 XY   -0.000007   0.000008   0.000013  -0.000013   0.000011
  149  C 10 XZ   -0.000023  -0.000015   0.000006   0.000012   0.000058
  150  C 10 YZ    0.000009   0.000006  -0.000007   0.000014  -0.000001
  151  N 11  S   -0.000030   0.000002  -0.000001  -0.000013   0.992723
  152  N 11  S   -0.000105   0.000014  -0.000001  -0.000044   0.034611
  153  N 11  X    0.000038   0.000007   0.000005  -0.000006   0.000052
  154  N 11  Y   -0.000002   0.000001   0.000012   0.000034   0.000039
  155  N 11  Z    0.000025   0.000000   0.000002   0.000015   0.000014
  156  N 11  S    0.000638  -0.000121  -0.000106   0.000276   0.003682
  157  N 11  X   -0.000275  -0.000044   0.000000   0.000004  -0.000130
  158  N 11  Y   -0.000006   0.000058  -0.000088  -0.000243  -0.000044
  159  N 11  Z   -0.000253   0.000040   0.000006  -0.000181   0.000076
  160  N 11 XX   -0.000069   0.000004  -0.000016  -0.000050  -0.008347
  161  N 11 YY   -0.000070   0.000000   0.000003  -0.000022  -0.008339
  162  N 11 ZZ   -0.000056   0.000001  -0.000005  -0.000018  -0.008352
  163  N 11 XY   -0.000010  -0.000003  -0.000005   0.000014  -0.000004
  164  N 11 XZ    0.000020   0.000005  -0.000007   0.000002  -0.000001
  165  N 11 YZ    0.000005  -0.000001   0.000002   0.000001  -0.000002
  166  C 12  S   -0.000006   0.000001  -0.000022  -0.000004  -0.000006
  167  C 12  S   -0.000022   0.000004  -0.000092  -0.000027   0.000002
  168  C 12  X   -0.000011  -0.000002   0.000047   0.000010   0.000173
  169  C 12  Y    0.000021  -0.000002  -0.000016   0.000007  -0.000169
  170  C 12  Z    0.000024   0.000004   0.000005  -0.000013  -0.000133
  171  C 12  S   -0.000064  -0.000049   0.000705   0.000147  -0.000261
  172  C 12  X   -0.000002  -0.000003  -0.000404   0.000071  -0.000083
  173  C 12  Y    0.000027   0.000029  -0.000039  -0.000117   0.000106
  174  C 12  Z   -0.000030  -0.000015  -0.000088   0.000015   0.000094
  175  C 12 XX   -0.000011   0.000001  -0.000006   0.000008   0.000090
  176  C 12 YY   -0.000023  -0.000000  -0.000037  -0.000002   0.000083
  177  C 12 ZZ   -0.000005   0.000004  -0.000047   0.000000   0.000038
  178  C 12 XY   -0.000007   0.000000   0.000028  -0.000014  -0.000131
  179  C 12 XZ    0.000011  -0.000001   0.000010  -0.000006  -0.000100
  180  C 12 YZ   -0.000010  -0.000002   0.000000   0.000003   0.000096
  181  C 13  S   -0.000004  -0.000007  -0.000023  -0.000027  -0.000010
  182  C 13  S   -0.000010  -0.000026  -0.000068  -0.000090  -0.000021
  183  C 13  X    0.000008   0.000012   0.000051  -0.000052   0.000035
  184  C 13  Y   -0.000014  -0.000000   0.000023   0.000017   0.000246
  185  C 13  Z    0.000004   0.000021   0.000002   0.000004  -0.000097
  186  C 13  S    0.000036   0.000112   0.000567   0.000672  -0.000207
  187  C 13  X    0.000021  -0.000051  -0.000372   0.000307  -0.000006
  188  C 13  Y   -0.000019   0.000036  -0.000148  -0.000336  -0.000132
  189  C 13  Z    0.000060  -0.000123  -0.000006  -0.000086   0.000029
  190  C 13 XX   -0.000012  -0.000009  -0.000029  -0.000062  -0.000027
  191  C 13 YY   -0.000008  -0.000008  -0.000061  -0.000063   0.000221
  192  C 13 ZZ   -0.000011  -0.000014  -0.000052  -0.000029   0.000009
  193  C 13 XY    0.000017   0.000001  -0.000005  -0.000007   0.000038
  194  C 13 XZ   -0.000001  -0.000003   0.000004   0.000002  -0.000017
  195  C 13 YZ    0.000007  -0.000005   0.000007   0.000029  -0.000122
  196  C 14  S    0.000006   0.000002  -0.000012   0.000002  -0.000009
  197  C 14  S    0.000016   0.000007  -0.000057   0.000010  -0.000020
  198  C 14  X   -0.000007  -0.000006   0.000012   0.000004  -0.000270
  199  C 14  Y   -0.000001  -0.000005   0.000006   0.000008  -0.000089
  200  C 14  Z   -0.000006  -0.000004  -0.000005   0.000025  -0.000043
  201  C 14  S   -0.000054  -0.000011   0.000223  -0.000099  -0.000090
  202  C 14  X   -0.000017  -0.000000  -0.000159  -0.000070   0.000056
  203  C 14  Y   -0.000042   0.000001  -0.000035   0.000065   0.000028
  204  C 14  Z    0.000101   0.000023   0.000015  -0.000095  -0.000003
  205  C 14 XX    0.000019   0.000005  -0.000001   0.000017   0.000240
  206  C 14 YY    0.000008   0.000005  -0.000023  -0.000006   0.000001
  207  C 14 ZZ    0.000009   0.000003  -0.000019  -0.000002  -0.000023
  208  C 14 XY    0.000011   0.000003   0.000003  -0.000008   0.000100
  209  C 14 XZ   -0.000011  -0.000001   0.000003  -0.000001   0.000051
  210  C 14 YZ    0.000000   0.000000   0.000001   0.000000   0.000016
  211  H 15  S    0.000078   0.000007   0.000055   0.000002  -0.000000
  212  H 15  S   -0.000166   0.000006   0.000091  -0.000008   0.000000
  213  H 16  S    0.000029   0.000004   0.000013   0.000004   0.000001
  214  H 16  S   -0.000216  -0.000008  -0.000292   0.000006   0.000005
  215  H 17  S    0.000058   0.000003   0.000028   0.000004  -0.000001
  216  H 17  S    0.000092   0.000002   0.000069   0.000002  -0.000003
  217  H 18  S    0.000008   0.000045   0.000055   0.000021   0.000050
  218  H 18  S    0.000089   0.000030  -0.000383  -0.000124   0.000059
  219  H 19  S    0.000031   0.000018   0.000001  -0.000001  -0.000008
  220  H 19  S    0.000064   0.000092   0.000027  -0.000002  -0.000007
  221  H 20  S    0.000065   0.000004   0.000003   0.000030   0.000008
  222  H 20  S    0.000001   0.000097   0.000001   0.000082   0.000017
  223  H 21  S   -0.000020   0.000437   0.000004   0.000102  -0.000003
  224  H 21  S   -0.000055  -0.001080  -0.000008  -0.000116   0.000003
  225  H 22  S    0.000129   0.000003  -0.000016  -0.000054  -0.000022
  226  H 22  S   -0.000212   0.000011  -0.000086  -0.000217  -0.000038
  227  H 23  S   -0.000020  -0.000025   0.000012   0.000083  -0.000019
  228  H 23  S   -0.000159  -0.000174   0.000078  -0.000326  -0.000078
  229  H 24  S    0.000029   0.000003   0.000040  -0.000010  -0.000002
  230  H 24  S    0.000006   0.000013  -0.000742   0.000013  -0.000036
  231  H 25  S   -0.000010  -0.000003  -0.000024  -0.000003  -0.000004
  232  H 25  S    0.000027  -0.000006  -0.000091   0.000060  -0.000037
  233  H 26  S    0.000005   0.000004  -0.000012  -0.000019  -0.000010
  234  H 26  S    0.000033   0.000015   0.000014  -0.000014  -0.000044
  235  H 27  S    0.000017  -0.000019   0.000086   0.000002  -0.000013
  236  H 27  S   -0.000058  -0.000019  -0.000670   0.000032  -0.000026
  237  H 28  S   -0.000006   0.000006  -0.000008  -0.000037  -0.000008
  238  H 28  S   -0.000031   0.000060  -0.000001  -0.000108  -0.000023
  239  H 29  S    0.000014  -0.000023  -0.000022   0.000125  -0.000005
  240  H 29  S   -0.000026   0.000006  -0.000019  -0.000900  -0.000068
  241  H 30  S    0.000009   0.000001  -0.000019  -0.000003  -0.000017
  242  H 30  S    0.000059   0.000003   0.000035  -0.000035  -0.000038
  243  H 31  S    0.000004   0.000001  -0.000016  -0.000021  -0.000017
  244  H 31  S    0.000033   0.000016   0.000040   0.000139  -0.000025
  245  H 32  S   -0.000004  -0.000000  -0.000023   0.000017  -0.000014
  246  H 32  S   -0.000034  -0.000016   0.000004   0.000077  -0.000030

                      6          7          8          9         10
                  -10.4585   -10.4568   -10.4115   -10.4003   -10.3940
                     A          A          A          A          A   
    1  C  1  S   -0.000007   0.000763  -0.000041   0.000003   0.000005
    2  C  1  S   -0.000030  -0.000237  -0.000192   0.000022   0.000012
    3  C  1  X    0.000003  -0.000250   0.000076  -0.000014   0.000005
    4  C  1  Y   -0.000000   0.000157  -0.000042  -0.000007  -0.000002
    5  C  1  Z    0.000005  -0.000094   0.000001  -0.000006  -0.000006
    6  C  1  S    0.000218   0.004142   0.002402  -0.000261  -0.000046
    7  C  1  X    0.000064   0.001989   0.000697  -0.000037  -0.000038
    8  C  1  Y   -0.000089  -0.001047  -0.000515   0.000182   0.000014
    9  C  1  Z    0.000018   0.000464   0.000399  -0.000001   0.000075
   10  C  1 XX   -0.000001  -0.000332  -0.000014   0.000006  -0.000001
   11  C  1 YY   -0.000002  -0.000224  -0.000038  -0.000005   0.000002
   12  C  1 ZZ   -0.000005  -0.000168  -0.000028   0.000000   0.000010
   13  C  1 XY   -0.000008   0.000170  -0.000028   0.000013   0.000002
   14  C  1 XZ    0.000002  -0.000063   0.000009  -0.000001   0.000003
   15  C  1 YZ   -0.000005   0.000059  -0.000024  -0.000005  -0.000004
   16  C  2  S   -0.000079   0.992964   0.000013   0.000011   0.000000
   17  C  2  S   -0.000034   0.048283  -0.000191   0.000049   0.000007
   18  C  2  X   -0.000003   0.001061  -0.000154   0.000041   0.000006
   19  C  2  Y    0.000019  -0.000424   0.000102  -0.000007   0.000014
   20  C  2  Z   -0.000026   0.000034  -0.000047   0.000049   0.000005
   21  C  2  S    0.000101  -0.007906   0.000656   0.000188  -0.000161
   22  C  2  X    0.000310   0.002110   0.002665  -0.000330  -0.000034
   23  C  2  Y   -0.000037  -0.002403  -0.001741  -0.000018   0.000011
   24  C  2  Z   -0.000040   0.001799   0.000484  -0.000131  -0.000110
   25  C  2 XX    0.000017  -0.008865   0.000069  -0.000008   0.000013
   26  C  2 YY   -0.000004  -0.008996   0.000009   0.000021  -0.000002
   27  C  2 ZZ    0.000016  -0.008464   0.000053   0.000034  -0.000008
   28  C  2 XY    0.000017  -0.000140  -0.000039   0.000002  -0.000009
   29  C  2 XZ   -0.000036  -0.000228  -0.000113  -0.000021   0.000002
   30  C  2 YZ   -0.000024  -0.000675  -0.000117  -0.000006   0.000025
   31  O  3  S   -0.000005  -0.000112   0.000030   0.000019   0.000012
   32  O  3  S   -0.000017   0.000514   0.000145   0.000083   0.000036
   33  O  3  X    0.000000   0.000091  -0.000022   0.000031   0.000024
   34  O  3  Y   -0.000005   0.000004  -0.000063   0.000009   0.000006
   35  O  3  Z    0.000006   0.000014   0.000019  -0.000027   0.000006
   36  O  3  S    0.000041  -0.003305  -0.001562  -0.000279  -0.000078
   37  O  3  X   -0.000027  -0.000514  -0.000307  -0.000037  -0.000100
   38  O  3  Y    0.000010  -0.001128   0.000059  -0.000065   0.000023
   39  O  3  Z   -0.000009   0.001674   0.000479   0.000168  -0.000077
   40  O  3 XX   -0.000008   0.000382   0.000120   0.000043   0.000034
   41  O  3 YY   -0.000023   0.000286   0.000041   0.000085   0.000049
   42  O  3 ZZ   -0.000015   0.000012  -0.000002   0.000039   0.000053
   43  O  3 XY   -0.000001  -0.000030  -0.000042   0.000004  -0.000009
   44  O  3 XZ   -0.000004   0.000093   0.000008   0.000012  -0.000002
   45  O  3 YZ   -0.000002   0.000342  -0.000035   0.000044  -0.000013
   46  O  4  S   -0.000062  -0.000004  -0.000118  -0.000048   0.000013
   47  O  4  S   -0.000269   0.000435  -0.000263  -0.000213   0.000081
   48  O  4  X   -0.000045   0.000078  -0.000094  -0.000084   0.000008
   49  O  4  Y    0.000036  -0.000076  -0.000004   0.000018  -0.000009
   50  O  4  Z    0.000038   0.000033   0.000056  -0.000049  -0.000013
   51  O  4  S    0.001398  -0.001374   0.003292   0.000549  -0.000652
   52  O  4  X    0.000567   0.000320   0.001356   0.000203  -0.000317
   53  O  4  Y   -0.000425   0.001060  -0.000083  -0.000068   0.000157
   54  O  4  Z   -0.000218  -0.001341  -0.000765   0.000050   0.000075
   55  O  4 XX   -0.000158  -0.000207  -0.000409  -0.000088  -0.000006
   56  O  4 YY   -0.000148   0.000250  -0.000379  -0.000151   0.000034
   57  O  4 ZZ   -0.000196  -0.000102  -0.000200  -0.000205   0.000031
   58  O  4 XY   -0.000082  -0.000011   0.000362  -0.000008   0.000032
   59  O  4 XZ    0.000015   0.000533  -0.000032   0.000065   0.000012
   60  O  4 YZ    0.000011   0.000271   0.000092   0.000051   0.000003
   61  C  5  S   -0.000075  -0.000035   0.993278  -0.009386   0.000031
   62  C  5  S   -0.000132  -0.000146   0.050458  -0.000825  -0.000238
   63  C  5  X   -0.000078   0.000037  -0.000446  -0.000006   0.000007
   64  C  5  Y    0.000047   0.000081   0.000691  -0.000042  -0.000050
   65  C  5  Z    0.000082  -0.000095  -0.000157  -0.000020   0.000062
   66  C  5  S   -0.000287   0.000491  -0.025046   0.004906   0.002178
   67  C  5  X    0.001179  -0.001704  -0.001150   0.001772   0.000349
   68  C  5  Y   -0.000557  -0.000088  -0.001814   0.000886   0.001115
   69  C  5  Z   -0.000250   0.000593   0.001601   0.001853  -0.000314
   70  C  5 XX   -0.000119   0.000155  -0.008472  -0.000297   0.000006
   71  C  5 YY   -0.000085   0.000057  -0.008407  -0.000158  -0.000040
   72  C  5 ZZ    0.000009  -0.000028  -0.008559  -0.000115  -0.000062
   73  C  5 XY    0.000046  -0.000132  -0.000057  -0.000092  -0.000022
   74  C  5 XZ   -0.000035  -0.000066  -0.000050  -0.000025   0.000032
   75  C  5 YZ    0.000019  -0.000016  -0.000133  -0.000076   0.000021
   76  C  6  S    0.000880   0.000026   0.001656  -0.000148  -0.000019
[...]
 H           1.0   7.2841802631   3.4427034343   2.7666989550

          INTERNUCLEAR DISTANCES (ANGS.)
          ------------------------------

                1 C          2 C          3 O          4 O          5 C     

   1 C       0.0000000    1.5019107 *  2.4266242 *  2.3724554 *  3.7101016  
   2 C       1.5019107 *  0.0000000    1.2129027 *  1.3707757 *  2.4034360 *
   3 O       2.4266242 *  1.2129027 *  0.0000000    2.2646724 *  2.7052469 *
   4 O       2.3724554 *  1.3707757 *  2.2646724 *  0.0000000    1.4405370 *
   5 C       3.7101016    2.4034360 *  2.7052469 *  1.4405370 *  0.0000000  
   6 C       4.5499501    3.5068549    3.9699644    2.3882080 *  1.5379205 *
   7 C       5.9202273    4.7266724    4.8910326    3.7543144    2.5363488 *
   8 O       6.3891311    5.0321480    4.9417935    4.2001266    2.7919069 *
   9 O       6.8473567    5.7943043    6.0333127    4.8099427    3.7601414  
  10 C       4.6632384    3.4011970    3.5914677    2.4545302 *  1.5361925 *
  11 N       5.1622729    3.8397540    3.6197779    3.3790112    2.6309100 *
  12 C       4.5618698    3.4830970    3.2659175    3.4138930    3.2862343  
  13 C       5.6206470    4.1642759    3.5468412    3.9829742    3.0203754  
  14 C       6.5302738    5.2827328    5.1223631    4.6785387    3.8684304  
  15 H       1.0938475 *  2.1487280 *  3.1889802    2.5654603 *  3.9921153  
  16 H       1.0900732 *  2.1302751 *  2.5930563 *  3.2937471    4.5208498  
  17 H       1.0959601 *  2.1329126 *  3.0597025    2.7279125 *  4.0035627  
  18 H       3.8954387    2.4456246 *  2.2635103 *  2.0666608 *  1.0890095 *
  19 H       4.8591413    4.0202122    4.6900181    2.7153784 *  2.1883355 *
  20 H       4.2369019    3.4055339    3.9442004    2.5162335 *  2.1475233 *
  21 H       6.6216422    5.7461315    6.1490696    4.7320719    3.9299380  
  22 H       4.5783863    3.5765604    4.0312467    2.5251662 *  2.1673857 *
  23 H       5.6326306    4.3534463    4.4950995    3.3207465    2.1426010 *
  24 H       3.6664724    2.5895454 *  2.2599543 *  2.8763053 *  3.0160279  
  25 H       4.5971597    3.7610047    3.8652211    3.5099749    3.6161161  
  26 H       5.4009997    4.3637138    3.9386513    4.4568573    4.2664148  
  27 H       4.9119377    3.4629539    2.6452346 *  3.5855229    2.8391365 *
  28 H       6.4129291    5.0117325    4.2830864    4.9574762    4.0882865  
  29 H       6.1667445    4.6722163    4.1426531    4.2866794    3.0489203  
  30 H       6.5654025    5.4767016    5.5346938    4.7441400    4.1360014  
  31 H       7.1555979    5.8285674    5.6525409    5.1025025    4.0447060  
  32 H       7.0733664    5.8457392    5.5242866    5.4466099    4.7189107  

                6 C          7 C          8 O          9 O         10 C     

   1 C       4.5499501    5.9202273    6.3891311    6.8473567    4.6632384  
   2 C       3.5068549    4.7266724    5.0321480    5.7943043    3.4011970  
   3 O       3.9699644    4.8910326    4.9417935    6.0333127    3.5914677  
   4 O       2.3882080 *  3.7543144    4.2001266    4.8099427    2.4545302 *
   5 C       1.5379205 *  2.5363488 *  2.7919069 *  3.7601414    1.5361925 *
   6 C       0.0000000    1.5286268 *  2.4129415 *  2.4442619 *  2.5225759 *
   7 C       1.5286268 *  0.0000000    1.2123767 *  1.3402599 *  3.0999750  
   8 O       2.4129415 *  1.2123767 *  0.0000000    2.2153939 *  2.9672986 *
   9 O       2.4442619 *  1.3402599 *  2.2153939 *  0.0000000    4.3683379  
  10 C       2.5225759 *  3.0999750    2.9672986 *  4.3683379    0.0000000  
  11 N       3.8858442    4.2247076    3.7096765    5.5444329    1.5330952 *
  12 C       4.7447219    5.4130095    5.0570701    6.7395133    2.5223992 *
  13 C       4.1921926    4.1754092    3.3939978    5.4692876    2.5187436 *
  14 C       4.8463996    4.9417594    4.2885838    6.1578869    2.4417939 *
  15 H       4.8046192    6.2609315    6.7632780    7.1896760    4.6867641  
  16 H       5.4846606    6.7719671    7.1364108    7.7356043    5.4152478  
  17 H       4.4970913    5.8757663    6.5091566    6.6252840    5.1729095  
  18 H       2.1487608 *  2.7010023 *  2.6871019 *  3.9331279    2.1838484 *
  19 H       1.0987306 *  2.1619537 *  3.0835987    2.7768558 *  2.7260912 *
  20 H       1.0962655 *  2.1629947 *  3.1595389    2.6891717 *  3.4531395  
  21 H       2.4386146 *  1.9301136 *  3.0284664    0.9729374 *  4.6992640  
  22 H       2.9900908 *  3.8273715    3.8916287    4.9784239    1.0931703 *
  23 H       2.5388169 *  2.6091612 *  2.3211389 *  3.7931928    1.0883146 *
  24 H       4.5485199    5.3582025    5.1234118    6.6697367    2.7975947 *
  25 H       4.9556962    5.7808487    5.5700712    7.0574315    2.7140028 *
  26 H       5.7253572    6.2474974    5.7345535    7.5839761    3.4511875  
  27 H       4.1163411    4.2873160    3.6839832    5.5689754    2.8673195 *
  28 H       5.2740241    5.1810011    4.2920038    6.4435752    3.4354932  
  29 H       3.8613672    3.4752232    2.5086008 *  4.6873655    2.6306558 *
  30 H       5.0234962    5.3044806    4.8460383    6.4624542    2.6175686 *
  31 H       4.7437701    4.5154875    3.7282258    5.6283668    2.6864309 *
  32 H       5.8159728    5.8793689    5.1233620    7.1126267    3.3976738  

               11 N         12 C         13 C         14 C         15 H     

   1 C       5.1622729    4.5618698    5.6206470    6.5302738    1.0938475 *
   2 C       3.8397540    3.4830970    4.1642759    5.2827328    2.1487280 *
   3 O       3.6197779    3.2659175    3.5468412    5.1223631    3.1889802  
   4 O       3.3790112    3.4138930    3.9829742    4.6785387    2.5654603 *
   5 C       2.6309100 *  3.2862343    3.0203754    3.8684304    3.9921153  
   6 C       3.8858442    4.7447219    4.1921926    4.8463996    4.8046192  
   7 C       4.2247076    5.4130095    4.1754092    4.9417594    6.2609315  
   8 O       3.7096765    5.0570701    3.3939978    4.2885838    6.7632780  
   9 O       5.5444329    6.7395133    5.4692876    6.1578869    7.1896760  
  10 C       1.5330952 *  2.5223992 *  2.5187436 *  2.4417939 *  4.6867641  
  11 N       0.0000000    1.5084292 *  1.5152371 *  1.5105079 *  5.2436199  
  12 C       1.5084292 *  0.0000000    2.4662923 *  2.4513628 *  4.5405571  
  13 C       1.5152371 *  2.4662923 *  0.0000000    2.4578980 *  5.9722489  
  14 C       1.5105079 *  2.4513628 *  2.4578980 *  0.0000000    6.4676123  
  15 H       5.2436199    4.5405571    5.9722489    6.4676123    0.0000000  
  16 H       5.6643962    4.8727406    5.9865766    7.0549650    1.7954414 *
  17 H       5.8807504    5.4759238    6.2622166    7.2589370    1.7635142 *
  18 H       2.7440748 *  3.4032698    2.5626911 *  4.1041903    4.4211926  
  19 H       4.2423533    5.0496475    4.8562867    4.9915146    4.8794924  
  20 H       4.7308776    5.4110802    4.9089960    5.8290472    4.6238393  
  21 H       6.0124367    7.0798400    6.0751300    6.7060360    6.9238872  
  22 H       2.1205975 *  2.6305802 *  3.4289486    2.7110342 *  4.3467069  
  23 H       2.0889338 *  3.3942304    2.7886121 *  2.4654235 *  5.6751288  
  24 H       2.1271966 *  1.0879731 *  2.6703795 *  3.3970454    3.8121511  
  25 H       2.1288917 *  1.0912906 *  3.4126790    2.6871033 *  4.3148198  
  26 H       2.1204867 *  1.0912924 *  2.6852948 *  2.6375551 *  5.4135223  
  27 H       2.1311211 *  2.6004630 *  1.0895409 *  3.3927075    5.4170297  
  28 H       2.1223584 *  2.7565393 *  1.0908825 *  2.5716017 *  6.7412336  
  29 H       2.1323582 *  3.4026875    1.0907330 *  2.7760326 *  6.5516916  
  30 H       2.1323695 *  2.7132825 *  3.4070440    1.0913534 *  6.3229027  
  31 H       2.1310741 *  3.3982058    2.6435598 *  1.0908553 *  7.1603187  
  32 H       2.1281865 *  2.6262712 *  2.7056282 *  1.0906453 *  7.0345230  

               16 H         17 H         18 H         19 H         20 H     

   1 C       1.0900732 *  1.0959601 *  3.8954387    4.8591413    4.2369019  
   2 C       2.1302751 *  2.1329126 *  2.4456246 *  4.0202122    3.4055339  
   3 O       2.5930563 *  3.0597025    2.2635103 *  4.6900181    3.9442004  
   4 O       3.2937471    2.7279125 *  2.0666608 *  2.7153784 *  2.5162335 *
   5 C       4.5208498    4.0035627    1.0890095 *  2.1883355 *  2.1475233 *
   6 C       5.4846606    4.4970913    2.1487608 *  1.0987306 *  1.0962655 *
   7 C       6.7719671    5.8757663    2.7010023 *  2.1619537 *  2.1629947 *
   8 O       7.1364108    6.5091566    2.6871019 *  3.0835987    3.1595389  
   9 O       7.7356043    6.6252840    3.9331279    2.7768558 *  2.6891717 *
  10 C       5.4152478    5.1729095    2.1838484 *  2.7260912 *  3.4531395  
  11 N       5.6643962    5.8807504    2.7440748 *  4.2423533    4.7308776  
  12 C       4.8727406    5.4759238    3.4032698    5.0496475    5.4110802  
  13 C       5.9865766    6.2622166    2.5626911 *  4.8562867    4.9089960  
  14 C       7.0549650    7.2589370    4.1041903    4.9915146    5.8290472  
  15 H       1.7954414 *  1.7635142 *  4.4211926    4.8794924    4.6238393  
  16 H       0.0000000    1.7824991 *  4.5173565    5.8815022    5.1619290  
  17 H       1.7824991 *  0.0000000    4.1939136    4.7946297    3.9419025  
  18 H       4.5173565    4.1939136    0.0000000    3.0699590    2.5103899 *
  19 H       5.8815022    4.7946297    3.0699590    0.0000000    1.7575187 *
  20 H       5.1619290    3.9419025    2.5103899 *  1.7575187 *  0.0000000  
  21 H       7.5579790    6.2731681    4.2339005    2.5740032 *  2.3961013 *
  22 H       5.3870647    5.1293509    3.0413137    2.8170296 *  3.8617805  
  23 H       6.4226319    6.0343263    2.6831626 *  2.6660148 *  3.6081707  
  24 H       3.8818490    4.6014845    2.9738303 *  4.9854069    5.0177615  
  25 H       4.9939477    5.5236438    4.0178642    5.0297446    5.6444953  
  26 H       5.5478820    6.3642737    4.2221789    6.0766878    6.4014903  
  27 H       5.1745349    5.5341958    2.1119509 *  4.9156391    4.6168182  
  28 H       6.6575261    7.1375695    3.6223224    5.9022981    5.9990063  
  29 H       6.6391982    6.6632395    2.5787829 *  4.5646312    4.6291595  
  30 H       7.1563133    7.2991392    4.6152589    4.9373638    6.0210614  
  31 H       7.7473196    7.7760254    4.2352482    4.9031663    5.7809837  
  32 H       7.4608801    7.8887795    4.7978191    6.0337269    6.7540673  

               21 H         22 H         23 H         24 H         25 H     

   1 C       6.6216422    4.5783863    5.6326306    3.6664724    4.5971597  
   2 C       5.7461315    3.5765604    4.3534463    2.5895454 *  3.7610047  
   3 O       6.1490696    4.0312467    4.4950995    2.2599543 *  3.8652211  
   4 O       4.7320719    2.5251662 *  3.3207465    2.8763053 *  3.5099749  
   5 C       3.9299380    2.1673857 *  2.1426010 *  3.0160279    3.6161161  
   6 C       2.4386146 *  2.9900908 *  2.5388169 *  4.5485199    4.9556962  
   7 C       1.9301136 *  3.8273715    2.6091612 *  5.3582025    5.7808487  
   8 O       3.0284664    3.8916287    2.3211389 *  5.1234118    5.5700712  
   9 O       0.9729374 *  4.9784239    3.7931928    6.6697367    7.0574315  
  10 C       4.6992640    1.0931703 *  1.0883146 *  2.7975947 *  2.7140028 *
  11 N       6.0124367    2.1205975 *  2.0889338 *  2.1271966 *  2.1288917 *
  12 C       7.0798400    2.6305802 *  3.3942304    1.0879731 *  1.0912906 *
  13 C       6.0751300    3.4289486    2.7886121 *  2.6703795 *  3.4126790  
  14 C       6.7060360    2.7110342 *  2.4654235 *  3.3970454    2.6871033 *
  15 H       6.9238872    4.3467069    5.6751288    3.8121511    4.3148198  
  16 H       7.5579790    5.3870647    6.4226319    3.8818490    4.9939477  
  17 H       6.2731681    5.1293509    6.0343263    4.6014845    5.5236438  
  18 H       4.2339005    3.0413137    2.6831626 *  2.9738303 *  4.0178642  
  19 H       2.5740032 *  2.8170296 *  2.6660148 *  4.9854069    5.0297446  
  20 H       2.3961013 *  3.8617805    3.6081707    5.0177615    5.6444953  
  21 H       0.0000000    5.1584941    4.2615144    6.9360098    7.3045939  
  22 H       5.1584941    0.0000000    1.7818843 *  3.0046233    2.3607274 *
  23 H       4.2615144    1.7818843 *  0.0000000    3.7900608    3.5958635  
  24 H       6.9360098    3.0046233    3.7900608    0.0000000    1.7984469 *
  25 H       7.3045939    2.3607274 *  3.5958635    1.7984469 *  0.0000000  
  26 H       8.0010919    3.6188662    4.1783907    1.7810710 *  1.7862140 *
  27 H       6.0832376    3.7580118    3.3664979    2.3400219 *  3.6176205  
  28 H       7.1000158    4.2236419    3.6517196    3.1160762    3.7304690  
  29 H       5.4005912    3.6675311    2.4910533 *  3.6160376    4.2293659  
  30 H       6.9023998    2.4313581 *  2.6965748 *  3.7116989    2.4888518 *
  31 H       6.2766699    3.1465250    2.2504780 *  4.2251179    3.6999346  
  32 H       7.7010404    3.6651161    3.5072607    3.6156155    2.9712930 *

               26 H         27 H         28 H         29 H         30 H     

   1 C       5.4009997    4.9119377    6.4129291    6.1667445    6.5654025  
   2 C       4.3637138    3.4629539    5.0117325    4.6722163    5.4767016  
   3 O       3.9386513    2.6452346 *  4.2830864    4.1426531    5.5346938  
   4 O       4.4568573    3.5855229    4.9574762    4.2866794    4.7441400  
   5 C       4.2664148    2.8391365 *  4.0882865    3.0489203    4.1360014  
   6 C       5.7253572    4.1163411    5.2740241    3.8613672    5.0234962  
   7 C       6.2474974    4.2873160    5.1810011    3.4752232    5.3044806  
   8 O       5.7345535    3.6839832    4.2920038    2.5086008 *  4.8460383  
   9 O       7.5839761    5.5689754    6.4435752    4.6873655    6.4624542  
  10 C       3.4511875    2.8673195 *  3.4354932    2.6306558 *  2.6175686 *
  11 N       2.1204867 *  2.1311211 *  2.1223584 *  2.1323582 *  2.1323695 *
  12 C       1.0912924 *  2.6004630 *  2.7565393 *  3.4026875    2.7132825 *
  13 C       2.6852948 *  1.0895409 *  1.0908825 *  1.0907330 *  3.4070440  
  14 C       2.6375551 *  3.3927075    2.5716017 *  2.7760326 *  1.0913534 *
  15 H       5.4135223    5.4170297    6.7412336    6.5516916    6.3229027  
  16 H       5.5478820    5.1745349    6.6575261    6.6391982    7.1563133  
  17 H       6.3642737    5.5341958    7.1375695    6.6632395    7.2991392  
  18 H       4.2221789    2.1119509 *  3.6223224    2.5787829 *  4.6152589  
  19 H       6.0766878    4.9156391    5.9022981    4.5646312    4.9373638  
  20 H       6.4014903    4.6168182    5.9990063    4.6291595    6.0210614  
  21 H       8.0010919    6.0832376    7.1000158    5.4005912    6.9023998  
  22 H       3.6188662    3.7580118    4.2236419    3.6675311    2.4313581 *
  23 H       4.1783907    3.3664979    3.6517196    2.4910533 *  2.6965748 *
  24 H       1.7810710 *  2.3400219 *  3.1160762    3.6160376    3.7116989  
  25 H       1.7862140 *  3.6176205    3.7304690    4.2293659    2.4888518 *
  26 H       0.0000000    2.8986932 *  2.5232763 *  3.7115900    3.0329316  
  27 H       2.8986932 *  0.0000000    1.7834233 *  1.7931555 *  4.2287694  
  28 H       2.5232763 *  1.7834233 *  0.0000000    1.7976753 *  3.6059959  
  29 H       3.7115900    1.7931555 *  1.7976753 *  0.0000000    3.7286816  
  30 H       3.0329316    4.2287694    3.6059959    3.7286816    0.0000000  
  31 H       3.6146091    3.6851462    2.8090002 *  2.5170117 *  1.7902911 *
  32 H       2.3406221 *  3.6222698    2.3617667 *  3.2050986    1.7861698 *

               31 H         32 H     

   1 C       7.1555979    7.0733664  
   2 C       5.8285674    5.8457392  
   3 O       5.6525409    5.5242866  
   4 O       5.1025025    5.4466099  
   5 C       4.0447060    4.7189107  
   6 C       4.7437701    5.8159728  
   7 C       4.5154875    5.8793689  
   8 O       3.7282258    5.1233620  
   9 O       5.6283668    7.1126267  
  10 C       2.6864309 *  3.3976738  
  11 N       2.1310741 *  2.1281865 *
  12 C       3.3982058    2.6262712 *
  13 C       2.6435598 *  2.7056282 *
  14 C       1.0908553 *  1.0906453 *
  15 H       7.1603187    7.0345230  
  16 H       7.7473196    7.4608801  
  17 H       7.7760254    7.8887795  
  18 H       4.2352482    4.7978191  
  19 H       4.9031663    6.0337269  
  20 H       5.7809837    6.7540673  
  21 H       6.2766699    7.7010404  
  22 H       3.1465250    3.6651161  
  23 H       2.2504780 *  3.5072607  
  24 H       4.2251179    3.6156155  
  25 H       3.6999346    2.9712930 *
  26 H       3.6146091    2.3406221 *
  27 H       3.6851462    3.6222698  
  28 H       2.8090002 *  2.3617667 *
  29 H       2.5170117 *  3.2050986  
  30 H       1.7902911 *  1.7861698 *
  31 H       0.0000000    1.7867343 *
  32 H       1.7867343 *  0.0000000  

  * ... LESS THAN  3.000


          NUCLEAR ENERGY    =     1014.4130501005
          ELECTRONIC ENERGY =    -1723.6457083868
          TOTAL ENERGY      =     -709.2326582863

 THE INITIAL GEOMETRY IS ALREADY CONVERGED,
 SO ORBITALS/PROPERTY OUTPUT IS ALREADY PRINTED ABOVE
  $VIB   
          IVIB=   0 IATOM=   0 ICOORD=   0 E=     -709.2326582863
 -9.880405425E-06-1.159148372E-04 1.009212221E-04-2.692135655E-04 1.457119414E-04
 -1.408214473E-04 7.473496740E-05 3.653207672E-05 8.978054422E-05 1.202704926E-04
 -2.648710413E-04 1.842678706E-04 4.089284843E-04 3.320712206E-04-1.817829429E-04
  1.424448835E-05 1.343945945E-04 4.778377818E-05-1.150322543E-04-2.566665633E-05
 -1.072377087E-05 4.406449717E-05 1.334089614E-04 2.510864046E-05 3.269437051E-05
 -3.637120635E-05-2.589916568E-05 4.464090292E-05 4.585991560E-05 1.384811601E-05
  1.525618973E-04 9.519968434E-07 1.308453682E-04-6.006233190E-06 1.019135197E-04
  6.515157606E-05-2.218864903E-04-1.239380369E-04-3.753904850E-05 1.262509255E-04
 -5.759037513E-05 4.962920915E-05-2.267990697E-05-1.900728638E-05 1.231940647E-05
  2.863138886E-05-3.269826056E-05 2.197675557E-05 7.946905340E-07-3.139025063E-06
  2.751448472E-06-2.220706651E-04-1.306180321E-04 3.385986172E-05 6.605365416E-06
 -5.961195621E-05 2.982831885E-05-3.664275586E-05-4.840383934E-05-5.183539496E-05
 -2.017413631E-05-1.271793613E-05 1.569288948E-05 2.830854435E-05 1.280934106E-06
 -5.734280916E-05-5.495349091E-05-9.500044111E-05-2.781181525E-05 5.198316868E-05
  4.229574363E-06-7.109928078E-05-5.617994706E-06 2.157835116E-05 1.215168736E-05
 -6.743043642E-05-2.023767920E-05-5.928567228E-05-6.167232684E-05-1.904382649E-05
 -1.831465103E-04 6.689616554E-05 7.354766721E-05 1.935352697E-05-1.476221286E-05
 -1.118119514E-05 4.653717483E-05 3.463007963E-05-1.133882626E-05 1.126812352E-07
 -1.854330383E-05 2.454504686E-05 1.291407777E-05-8.967425052E-05 3.132465690E-05
 -6.754629562E-05
  1.699042711E+00 5.175309830E+00 1.396895366E+00
 ......END OF GEOMETRY SEARCH......
 CPU     0: STEP CPU TIME=     0.02 TOTAL CPU TIME=      664.6 (   11.1 MIN)
 TOTAL WALL CLOCK TIME=      667.4 SECONDS, CPU UTILIZATION IS  99.59%
               1575761  WORDS OF DYNAMIC MEMORY USED
 EXECUTION OF GAMESS TERMINATED NORMALLY Sat May 24 23:57:09 2014
 DDI: 263624 bytes (0.3 MB / 0 MWords) used by master data server.

 ----------------------------------------
 CPU timing information for all processes
 ========================================
 0: 663.762 + 0.892 = 664.654
 1: 664.13 + 0.624 = 664.637
 ----------------------------------------
 ddikick.x: exited gracefully.
----- accounting info -----
Files used on the master node localhost were:
-rw-r--r-- 1 maho staff    2312 May 24 23:46 ./000000002.4.F05
-rw-r--r-- 1 maho staff 5856880 May 24 23:57 ./000000002.4.F10
-rw-r--r-- 1 maho staff 8153792 May 24 23:49 ./000000002.4.F22
-rw-r--r-- 1 maho staff 8153792 May 24 23:49 ./000000002.4.F22.001
-rw-r--r-- 1 maho staff 1148442 May 24 23:57 ./000000002.4.dat
-rw-r--r-- 1 maho staff    2312 May 24 23:46 ./000000002.4.inp
Sat May 24 23:57:12 JST 2014
0.125u 0.058s 11:10.77 0.0%	0+0k 0+104io 0pf+0w
0.12user 0.05system 11:10.77elapsed 0%CPU (0avgtext+0avgdata 5792maxresident)k
0inputs+112outputs (0major+13746minor)pagefaults 0swaps
model name	: Intel(R) Core(TM)2 CPU         L7400  @ 1.50GHz
