----- GAMESS execution script 'rungms' -----
This job is running on host localhost
under operating system Linux at Thu May 22 05:29:43 JST 2014
PBS has assigned the following compute nodes to this run:
c0007
Copying input file 000000003.4.inp to your run's scratch directory...

 Distributed Data Interface kickoff program.
 Initiating 2 compute processes on 1 nodes to run the following command:
 /home/maho/pubchemqc.quest/build/gamess/gamess.00.x 000000003.4 

          ******************************************************
          *         GAMESS VERSION =  1 MAY 2013 (R1)          *
          *             FROM IOWA STATE UNIVERSITY             *
          * M.W.SCHMIDT, K.K.BALDRIDGE, J.A.BOATZ, S.T.ELBERT, *
          *   M.S.GORDON, J.H.JENSEN, S.KOSEKI, N.MATSUNAGA,   *
          *          K.A.NGUYEN, S.J.SU, T.L.WINDUS,           *
          *       TOGETHER WITH M.DUPUIS, J.A.MONTGOMERY       *
          *         J.COMPUT.CHEM.  14, 1347-1363(1993)        *
          **************** 64 BIT INTEL VERSION ****************

  SINCE 1993, STUDENTS AND POSTDOCS WORKING AT IOWA STATE UNIVERSITY
  AND ALSO IN THEIR VARIOUS JOBS AFTER LEAVING ISU HAVE MADE IMPORTANT
  CONTRIBUTIONS TO THE CODE:
     IVANA ADAMOVIC, CHRISTINE AIKENS, YURI ALEXEEV, POOJA ARORA,
     ANDREY ASADCHEV, ROB BELL, PRADIPTA BANDYOPADHYAY, JONATHAN BENTZ,
     BRETT BODE, GALINA CHABAN, WEI CHEN, CHEOL HO CHOI, PAUL DAY,
     ALBERT DEFUSCO, TIM DUDLEY, DMITRI FEDOROV, GRAHAM FLETCHER,
     MARK FREITAG, KURT GLAESEMANN, DAN KEMP, GRANT MERRILL,
     NORIYUKI MINEZAWA, JONATHAN MULLIN, TAKESHI NAGATA,
     SEAN NEDD, HEATHER NETZLOFF, BOSILJKA NJEGIC, RYAN OLSON, MIKE PAK,
     JIM SHOEMAKER, LYUDMILA SLIPCHENKO, SAROM SOK, JIE SONG,
     TETSUYA TAKETSUGU, SIMON WEBB, SOOHAENG YOO, FEDERICO ZAHARIEV

  ADDITIONAL CODE HAS BEEN PROVIDED BY COLLABORATORS IN OTHER GROUPS:
     IOWA STATE UNIVERSITY:
          JOE IVANIC, LAIMUTIS BYTAUTAS, KLAUS RUEDENBERG
     UNIVERSITY OF TOKYO: KIMIHIKO HIRAO, TAKAHITO NAKAJIMA,
          TAKAO TSUNEDA, MUNEAKI KAMIYA, SUSUMU YANAGISAWA,
          KIYOSHI YAGI, MAHITO CHIBA, SEIKEN TOKURA, NAOAKI KAWAKAMI
     UNIVERSITY OF AARHUS: FRANK JENSEN
     UNIVERSITY OF IOWA: VISVALDAS KAIRYS, HUI LI
     NATIONAL INST. OF STANDARDS AND TECHNOLOGY: WALT STEVENS, DAVID GARMER
     UNIVERSITY OF PISA: BENEDETTA MENNUCCI, JACOPO TOMASI
     UNIVERSITY OF MEMPHIS: HENRY KURTZ, PRAKASHAN KORAMBATH
     UNIVERSITY OF ALBERTA: TOBY ZENG, MARIUSZ KLOBUKOWSKI
     UNIVERSITY OF NEW ENGLAND: MARK SPACKMAN
     MIE UNIVERSITY: HIROAKI UMEDA
     MICHIGAN STATE UNIVERSITY:
          KAROL KOWALSKI, MARTA WLOCH, JEFFREY GOUR, JESSE LUTZ,
          WEI LI, PIOTR PIECUCH
     UNIVERSITY OF SILESIA: MONIKA MUSIAL, STANISLAW KUCHARSKI
     FACULTES UNIVERSITAIRES NOTRE-DAME DE LA PAIX:
          OLIVIER QUINET, BENOIT CHAMPAGNE
     UNIVERSITY OF CALIFORNIA - SANTA BARBARA: BERNARD KIRTMAN
     INSTITUTE FOR MOLECULAR SCIENCE:
          KAZUYA ISHIMURA, MICHIO KATOUDA, AND SHIGERU NAGASE
     UNIVERSITY OF NOTRE DAME: DAN CHIPMAN
     KYUSHU UNIVERSITY:
          HARUYUKI NAKANO,
          FENG LONG GU, JACEK KORCHOWIEC, MARCIN MAKOWSKI, AND YURIKO AOKI,
          HIROTOSHI MORI AND EISAKU MIYOSHI
     PENNSYLVANIA STATE UNIVERSITY:
          TZVETELIN IORDANOV, CHET SWALINA, JONATHAN SKONE,
          SHARON HAMMES-SCHIFFER
     WASEDA UNIVERSITY:
          MASATO KOBAYASHI, TOMOKO AKAMA, TSUGUKI TOUMA,
          TAKESHI YOSHIKAWA, YASUHIRO IKABATA, HIROMI NAKAI
     NANJING UNIVERSITY: SHUHUA LI
     UNIVERSITY OF NEBRASKA:
          PEIFENG SU, DEJUN SI, NANDUN THELLAMUREGE, YALI WANG, HUI LI
     UNIVERSITY OF ZURICH:
          ROBERTO PEVERATI, KIM BALDRIDGE
     N. COPERNICUS UNIVERSITY AND JACKSON STATE UNIVERSITY:
          MARIA BARYSZ


 PARALLEL VERSION RUNNING ON     2 PROCESSORS IN     1 NODES.

 EXECUTION OF GAMESS BEGUN Thu May 22 05:29:43 2014

            ECHO OF THE FIRST FEW INPUT CARDS -
 INPUT CARD> $CONTRL RUNTYP=OPTIMIZE UNITS=ANGS DFTTYP=B3LYPV1R $END                        
 INPUT CARD> $BASIS GBASIS=N31 NGAUSS=6 NDFUNC=1 $END                                       
 INPUT CARD> $ZMAT DLC=.T. AUTO=.T. $END                                                    
 INPUT CARD> $SCF DIRSCF=.T. FDIFF=.T. $END                                                 
 INPUT CARD> $STATPT NSTEP=3 OPTTOL=5D-4 $END                                               
 INPUT CARD> $SYSTEM TIMLIM=99999999999 MWORDS=200 $END                                     
 INPUT CARD>                                                                                
 INPUT CARD> $DATA                                                                          
 INPUT CARD>PUBCHEM 000000003 B3LYP 6-31G(d) gamess geometry optimization                   
 INPUT CARD>C1                                                                              
 INPUT CARD>C      6.0      1.1846999742    0.8792580075    0.1084402265                    
 INPUT CARD>C      6.0      1.4523086164   -0.4392446067    0.1134616892                    
 INPUT CARD>C      6.0      0.3783964324   -1.4636017705   -0.1414094800                    
 INPUT CARD>C      6.0     -1.0555856952   -0.9641796660    0.1287342961                    
 INPUT CARD>C      6.0     -1.2385130995    0.5304369816   -0.0762204276                    
 INPUT CARD>C      6.0     -0.1807211774    1.3705170344   -0.0356401301                    
 INPUT CARD>C      6.0     -2.6477300993    1.0009599236   -0.0587857546                    
 INPUT CARD>O      8.0     -3.5357359197    0.3554613207    0.4643643661                    
 INPUT CARD>O      8.0     -2.9320164232    2.1982245637   -0.6302104034                    
 INPUT CARD>O      8.0     -1.3742810195   -1.2891753143    1.4802027262                    
 INPUT CARD>O      8.0      0.5263513293   -1.9627129972   -1.4791155785                    
 INPUT CARD>H      1.0      1.9812593949    1.6101546013    0.2199733865                    
 INPUT CARD>H      1.0      2.4723859398   -0.8024273664    0.2064468244                    
 INPUT CARD>H      1.0      0.5167183028   -2.3374419681    0.5024418424                    
 INPUT CARD>H      1.0     -1.7111284267   -1.5140052998   -0.5617610489                    
 INPUT CARD>H      1.0     -0.3238457516    2.4504517373   -0.0557608873                    
 INPUT CARD>H      1.0     -2.1578183913    2.5121003536   -1.1258540101                    
 INPUT CARD>H      1.0     -2.3027398390   -1.0140681042    1.5951249204                    
 INPUT CARD>H      1.0      0.5838958501   -1.1940448691   -2.0698194677                    
 INPUT CARD> $END                                                                           
 INPUT CARD>                                                                                
 INPUT CARD>                                                                                
  200000000 WORDS OF MEMORY AVAILABLE

     BASIS OPTIONS
     -------------
     GBASIS=N31          IGAUSS=       6      POLAR=POPN31  
     NDFUNC=       1     NFFUNC=       0     DIFFSP=       F
     NPFUNC=       0      DIFFS=       F     BASNAM=        


     RUN TITLE
     ---------
 PUBCHEM 000000003 B3LYP 6-31G(d) gamess geometry optimization                   

 THE POINT GROUP OF THE MOLECULE IS C1      
 THE ORDER OF THE PRINCIPAL AXIS IS     0

 ATOM      ATOMIC                      COORDINATES (BOHR)
           CHARGE         X                   Y                   Z
 C           6.0     2.2387583289        1.6615567067        0.2049223141
 C           6.0     2.7444653346       -0.8300519482        0.2144115027
 C           6.0     0.7150655720       -2.7658063014       -0.2672251693
 C           6.0    -1.9947677205       -1.8220353717        0.2432725449
 C           6.0    -2.3404503903        1.0023805490       -0.1440357228
 C           6.0    -0.3415135055        2.5899016565       -0.0673500801
 C           6.0    -5.0034843771        1.8915399803       -0.1110889682
 O           8.0    -6.6815720532        0.6717244954        0.8775214104
 O           8.0    -5.5407076313        4.1540420849       -1.1909249770
 O           8.0    -2.5970145570       -2.4361880942        2.7971775588
 O           8.0     0.9946597857       -3.7089897572       -2.7951231475
 H           1.0     3.7440373670        3.0427509943        0.4156894251
 H           1.0     4.6721319621       -1.5163678475        0.3901279292
 H           1.0     0.9764560051       -4.4171248319        0.9494774069
 H           1.0    -3.2335638563       -2.8610551606       -1.0615744530
 H           1.0    -0.6119797328        4.6306823296       -0.1053727978
 H           1.0    -4.0776854908        4.7471813220       -2.1275555813
 H           1.0    -4.3515473167       -1.9163108498        3.0143490157
 H           1.0     1.1034031621       -2.2564176196       -3.9113916380

          INTERNUCLEAR DISTANCES (ANGS.)
          ------------------------------

                1 C          2 C          3 C          4 C          5 C     

   1 C       0.0000000    1.3453954 *  2.4902896 *  2.9013022 *  2.4551451 *
   2 C       1.3453954 *  0.0000000    1.5058401 *  2.5622888 *  2.8664932 *
   3 C       2.4902896 *  1.5058401 *  0.0000000    1.5423050 *  2.5680414 *
   4 C       2.9013022 *  2.5622888 *  1.5423050 *  0.0000000    1.5196538 *
   5 C       2.4551451 *  2.8664932 *  2.5680414 *  1.5196538 *  0.0000000  
   6 C       1.4582419 *  2.4421824 *  2.8906797 *  2.4986427 *  1.3514085 *
   7 C       3.8380068    4.3490431    3.9036307    2.5361114 *  1.4857955 *
   8 O       4.7627261    5.0631293    4.3584842    2.8293542 *  2.3664490 *
   9 O       4.3855024    5.1702609    4.9605173    3.7547024    2.4405683 *
  10 O       3.6238404    3.2526869    2.3941447 *  1.4260630 *  2.3983067 *
  11 O       3.3212280    2.3905345 *  1.4354303 *  2.4667336 *  3.3613477  
  12 H       1.0868102 *  2.1192383 *  3.4853616    3.9822041    3.4088790  
  13 H       2.1203316 *  1.0867869 *  2.2232741 *  3.5325326    3.9531253  
  14 H       3.3088662    2.1516942 *  1.0942002 *  2.1207656 *  3.4118055  
  15 H       3.8161107    3.4085730    2.1319827 *  1.0994673 *  2.1538011 *
  16 H       2.1843356 *  3.3961310    3.9774734    3.4970258    2.1268502 *
  17 H       3.9194496    4.8248686    4.8174396    3.8566088    2.4236012 *
  18 H       4.2375879    4.0775160    3.2258524    1.9256645 *  2.5122639 *
  19 H       3.0666538    2.4679102 *  1.9579724 *  2.7521585 *  3.2045981  

                6 C          7 C          8 O          9 O         10 O     

   1 C       1.4582419 *  3.8380068    4.7627261    4.3855024    3.6238404  
   2 C       2.4421824 *  4.3490431    5.0631293    5.1702609    3.2526869  
   3 C       2.8906797 *  3.9036307    4.3584842    4.9605173    2.3941447 *
   4 C       2.4986427 *  2.5361114 *  2.8293542 *  3.7547024    1.4260630 *
   5 C       1.3514085 *  1.4857955 *  2.3664490 *  2.4405683 *  2.3983067 *
   6 C       0.0000000    2.4946425 *  3.5406873    2.9339801 *  3.2857766  
   7 C       2.4946425 *  0.0000000    1.2161040 *  1.3567562 *  3.0388941  
   8 O       3.5406873    1.2161040 *  0.0000000    2.2267347 *  2.8997663 *
   9 O       2.9339801 *  1.3567562 *  2.2267347 *  0.0000000    4.3637531  
  10 O       3.2857766    3.0388941    2.8997663 *  4.3637531    0.0000000  
  11 O       3.7005399    4.5689700    5.0647408    5.4767097    3.5810084  
  12 H       2.1901882 *  4.6772180    5.6631457    5.0208483    4.6101999  
  13 H       3.4379166    5.4349004    6.1241127    6.2379061    4.0812038  
  14 H       3.8111565    4.6339656    4.8657541    5.8093841    2.3729218 *
  15 H       3.3074792    2.7304316 *  2.8066049 *  3.9084400    2.0817374 *
  16 H       1.0895634 *  2.7388819 *  3.8698519    2.6825669 *  4.1770096  
  17 H       2.5299589 *  1.9136859 *  3.0130621    0.9713718 *  4.6749502  
  18 H       3.5844950    2.6295963 *  2.1620614 *  3.9581474    0.9751548 *
  19 H       3.3614733    4.3938262    5.0788210    5.0932902    4.0553870  

               11 O         12 H         13 H         14 H         15 H     

   1 C       3.3212280    1.0868102 *  2.1203316 *  3.3088662    3.8161107  
   2 C       2.3905345 *  2.1192383 *  1.0867869 *  2.1516942 *  3.4085730  
   3 C       1.4354303 *  3.4853616    2.2232741 *  1.0942002 *  2.1319827 *
   4 C       2.4667336 *  3.9822041    3.5325326    2.1207656 *  1.0994673 *
   5 C       3.3613477    3.4088790    3.9531253    3.4118055    2.1538011 *
   6 C       3.7005399    2.1901882 *  3.4379166    3.8111565    3.3074792  
   7 C       4.5689700    4.6772180    5.4349004    4.6339656    2.7304316 *
   8 O       5.0647408    5.6631457    6.1241127    4.8657541    2.8066049 *
   9 O       5.4767097    5.0208483    6.2379061    5.8093841    3.9084400  
  10 O       3.5810084    4.6101999    4.0812038    2.3729218 *  2.0817374 *
  11 O       0.0000000    4.2153343    2.8239040 *  2.0167014 *  2.4595108 *
  12 H       4.2153343    0.0000000    2.4621007 *  4.2199748    4.8995114  
  13 H       2.8239040 *  2.4621007 *  0.0000000    2.5037010 *  4.3125722  
  14 H       2.0167014 *  4.2199748    2.5037010 *  0.0000000    2.6026672 *
  15 H       2.4595108 *  4.8995114    4.3125722    2.6026672 *  0.0000000  
  16 H       4.7143183    2.4689347 *  4.2975443    4.8930629    4.2305448  
  17 H       5.2300588    4.4448535    5.8480691    5.7725692    4.0898973  
  18 H       4.2842314    5.2086693    4.9774537    3.3006998    2.2917457 *
  19 H       0.9711298 *  3.8806328    2.9834791 *  2.8157411 *  2.7647335 *

               16 H         17 H         18 H         19 H     

   1 C       2.1843356 *  3.9194496    4.2375879    3.0666538  
   2 C       3.3961310    4.8248686    4.0775160    2.4679102 *
   3 C       3.9774734    4.8174396    3.2258524    1.9579724 *
   4 C       3.4970258    3.8566088    1.9256645 *  2.7521585 *
   5 C       2.1268502 *  2.4236012 *  2.5122639 *  3.2045981  
   6 C       1.0895634 *  2.5299589 *  3.5844950    3.3614733  
   7 C       2.7388819 *  1.9136859 *  2.6295963 *  4.3938262  
   8 O       3.8698519    3.0130621    2.1620614 *  5.0788210  
   9 O       2.6825669 *  0.9713718 *  3.9581474    5.0932902  
  10 O       4.1770096    4.6749502    0.9751548 *  4.0553870  
  11 O       4.7143183    5.2300588    4.2842314    0.9711298 *
  12 H       2.4689347 *  4.4448535    5.2086693    3.8806328  
  13 H       4.2975443    5.8480691    4.9774537    2.9834791 *
  14 H       4.8930629    5.7725692    3.3006998    2.8157411 *
  15 H       4.2305448    4.0898973    2.2917457 *  2.7647335 *
  16 H       0.0000000    2.1242306 *  4.3179096    4.2617816  
  17 H       2.1242306 *  0.0000000    4.4562981    4.7056966  
  18 H       4.3179096    4.4562981    0.0000000    4.6687123  
  19 H       4.2617816    4.7056966    4.6687123    0.0000000  

  * ... LESS THAN  3.000


     ATOMIC BASIS SET
     ----------------
 THE CONTRACTED PRIMITIVE FUNCTIONS HAVE BEEN UNNORMALIZED
 THE CONTRACTED BASIS FUNCTIONS ARE NOW NORMALIZED TO UNITY

  SHELL TYPE  PRIMITIVE        EXPONENT          CONTRACTION COEFFICIENT(S)

 C         

      1   S       1          3047.5248800    0.001834737132
      1   S       2           457.3695180    0.014037322813
      1   S       3           103.9486850    0.068842622264
      1   S       4            29.2101553    0.232184443216
      1   S       5             9.2866630    0.467941348435
      1   S       6             3.1639270    0.362311985337

      2   L       7             7.8682723   -0.119332419775    0.068999066591
      2   L       8             1.8812885   -0.160854151696    0.316423960957
      2   L       9             0.5442493    1.143456437840    0.744308290898

      3   L      10             0.1687145    1.000000000000    1.000000000000

      4   D      11             0.8000000    1.000000000000

 C         

      5   S      12          3047.5248800    0.001834737132
      5   S      13           457.3695180    0.014037322813
      5   S      14           103.9486850    0.068842622264
      5   S      15            29.2101553    0.232184443216
      5   S      16             9.2866630    0.467941348435
      5   S      17             3.1639270    0.362311985337

      6   L      18             7.8682723   -0.119332419775    0.068999066591
      6   L      19             1.8812885   -0.160854151696    0.316423960957
      6   L      20             0.5442493    1.143456437840    0.744308290898

      7   L      21             0.1687145    1.000000000000    1.000000000000

      8   D      22             0.8000000    1.000000000000

 C         

      9   S      23          3047.5248800    0.001834737132
      9   S      24           457.3695180    0.014037322813
      9   S      25           103.9486850    0.068842622264
      9   S      26            29.2101553    0.232184443216
      9   S      27             9.2866630    0.467941348435
      9   S      28             3.1639270    0.362311985337

     10   L      29             7.8682723   -0.119332419775    0.068999066591
     10   L      30             1.8812885   -0.160854151696    0.316423960957
     10   L      31             0.5442493    1.143456437840    0.744308290898

     11   L      32             0.1687145    1.000000000000    1.000000000000

     12   D      33             0.8000000    1.000000000000

 C         

     13   S      34          3047.5248800    0.001834737132
     13   S      35           457.3695180    0.014037322813
     13   S      36           103.9486850    0.068842622264
     13   S      37            29.2101553    0.232184443216
     13   S      38             9.2866630    0.467941348435
     13   S      39             3.1639270    0.362311985337

     14   L      40             7.8682723   -0.119332419775    0.068999066591
     14   L      41             1.8812885   -0.160854151696    0.316423960957
     14   L      42             0.5442493    1.143456437840    0.744308290898

     15   L      43             0.1687145    1.000000000000    1.000000000000

     16   D      44             0.8000000    1.000000000000

 C         

     17   S      45          3047.5248800    0.001834737132
     17   S      46           457.3695180    0.014037322813
     17   S      47           103.9486850    0.068842622264
     17   S      48            29.2101553    0.232184443216
     17   S      49             9.2866630    0.467941348435
     17   S      50             3.1639270    0.362311985337

     18   L      51             7.8682723   -0.119332419775    0.068999066591
     18   L      52             1.8812885   -0.160854151696    0.316423960957
     18   L      53             0.5442493    1.143456437840    0.744308290898

     19   L      54             0.1687145    1.000000000000    1.000000000000

     20   D      55             0.8000000    1.000000000000

 C         

     21   S      56          3047.5248800    0.001834737132
     21   S      57           457.3695180    0.014037322813
     21   S      58           103.9486850    0.068842622264
     21   S      59            29.2101553    0.232184443216
     21   S      60             9.2866630    0.467941348435
     21   S      61             3.1639270    0.362311985337

     22   L      62             7.8682723   -0.119332419775    0.068999066591
     22   L      63             1.8812885   -0.160854151696    0.316423960957
     22   L      64             0.5442493    1.143456437840    0.744308290898

     23   L      65             0.1687145    1.000000000000    1.000000000000

     24   D      66             0.8000000    1.000000000000

 C         

     25   S      67          3047.5248800    0.001834737132
     25   S      68           457.3695180    0.014037322813
     25   S      69           103.9486850    0.068842622264
     25   S      70            29.2101553    0.232184443216
     25   S      71             9.2866630    0.467941348435
     25   S      72             3.1639270    0.362311985337

     26   L      73             7.8682723   -0.119332419775    0.068999066591
     26   L      74             1.8812885   -0.160854151696    0.316423960957
     26   L      75             0.5442493    1.143456437840    0.744308290898

     27   L      76             0.1687145    1.000000000000    1.000000000000

     28   D      77             0.8000000    1.000000000000

 O         

     29   S      78          5484.6716600    0.001831074430
     29   S      79           825.2349460    0.013950172200
     29   S      80           188.0469580    0.068445078098
     29   S      81            52.9645000    0.232714335992
     29   S      82            16.8975704    0.470192897984
     29   S      83             5.7996353    0.358520852987

     30   L      84            15.5396162   -0.110777549525    0.070874268231
     30   L      85             3.5999336   -0.148026262701    0.339752839147
     30   L      86             1.0137618    1.130767015354    0.727158577316

     31   L      87             0.2700058    1.000000000000    1.000000000000

     32   D      88             0.8000000    1.000000000000

 O         

     33   S      89          5484.6716600    0.001831074430
     33   S      90           825.2349460    0.013950172200
     33   S      91           188.0469580    0.068445078098
     33   S      92            52.9645000    0.232714335992
     33   S      93            16.8975704    0.470192897984
     33   S      94             5.7996353    0.358520852987

     34   L      95            15.5396162   -0.110777549525    0.070874268231
     34   L      96             3.5999336   -0.148026262701    0.339752839147
     34   L      97             1.0137618    1.130767015354    0.727158577316

     35   L      98             0.2700058    1.000000000000    1.000000000000

     36   D      99             0.8000000    1.000000000000

 O         

     37   S     100          5484.6716600    0.001831074430
     37   S     101           825.2349460    0.013950172200
     37   S     102           188.0469580    0.068445078098
     37   S     103            52.9645000    0.232714335992
     37   S     104            16.8975704    0.470192897984
     37   S     105             5.7996353    0.358520852987

     38   L     106            15.5396162   -0.110777549525    0.070874268231
     38   L     107             3.5999336   -0.148026262701    0.339752839147
     38   L     108             1.0137618    1.130767015354    0.727158577316

     39   L     109             0.2700058    1.000000000000    1.000000000000

     40   D     110             0.8000000    1.000000000000

 O         

     41   S     111          5484.6716600    0.001831074430
     41   S     112           825.2349460    0.013950172200
     41   S     113           188.0469580    0.068445078098
     41   S     114            52.9645000    0.232714335992
     41   S     115            16.8975704    0.470192897984
     41   S     116             5.7996353    0.358520852987

     42   L     117            15.5396162   -0.110777549525    0.070874268231
     42   L     118             3.5999336   -0.148026262701    0.339752839147
     42   L     119             1.0137618    1.130767015354    0.727158577316

     43   L     120             0.2700058    1.000000000000    1.000000000000

     44   D     121             0.8000000    1.000000000000

 H         

     45   S     122            18.7311370    0.033494604338
     45   S     123             2.8253944    0.234726953484
     45   S     124             0.6401217    0.813757326146

     46   S     125             0.1612778    1.000000000000

 H         

     47   S     126            18.7311370    0.033494604338
     47   S     127             2.8253944    0.234726953484
     47   S     128             0.6401217    0.813757326146

     48   S     129             0.1612778    1.000000000000

 H         

     49   S     130            18.7311370    0.033494604338
     49   S     131             2.8253944    0.234726953484
     49   S     132             0.6401217    0.813757326146

     50   S     133             0.1612778    1.000000000000

 H         

     51   S     134            18.7311370    0.033494604338
     51   S     135             2.8253944    0.234726953484
     51   S     136             0.6401217    0.813757326146

     52   S     137             0.1612778    1.000000000000

 H         

     53   S     138            18.7311370    0.033494604338
     53   S     139             2.8253944    0.234726953484
     53   S     140             0.6401217    0.813757326146

     54   S     141             0.1612778    1.000000000000

 H         

     55   S     142            18.7311370    0.033494604338
     55   S     143             2.8253944    0.234726953484
     55   S     144             0.6401217    0.813757326146

     56   S     145             0.1612778    1.000000000000

 H         

     57   S     146            18.7311370    0.033494604338
     57   S     147             2.8253944    0.234726953484
     57   S     148             0.6401217    0.813757326146

     58   S     149             0.1612778    1.000000000000

 H         

     59   S     150            18.7311370    0.033494604338
     59   S     151             2.8253944    0.234726953484
     59   S     152             0.6401217    0.813757326146

     60   S     153             0.1612778    1.000000000000

 TOTAL NUMBER OF BASIS SET SHELLS             =   60
 NUMBER OF CARTESIAN GAUSSIAN BASIS FUNCTIONS =  181
 NUMBER OF ELECTRONS                          =   82
 CHARGE OF MOLECULE                           =    0
 SPIN MULTIPLICITY                            =    1
 NUMBER OF OCCUPIED ORBITALS (ALPHA)          =   41
 NUMBER OF OCCUPIED ORBITALS (BETA )          =   41
 TOTAL NUMBER OF ATOMS                        =   19
 THE NUCLEAR REPULSION ENERGY IS      624.2404910108

     LEBEDEV GRID-BASED DFT OPTIONS
     ------------------------------
     DFTTYP=B3LYPV1R
     NRAD  =      96     NLEB  =     302
     NRAD0 =      24     NLEB0 =     110
     SWOFF =    5.00E-03 (PURE SCF -> DFT)
     SWITCH=    3.00E-04 (COARSE -> TIGHT GRID)
     THRESH=    0.00E+00 GTHRE=    1.00E+00

 GRIMME'S EMPIRICAL DISPERSION CORRECTION= F

     $CONTRL OPTIONS
     ---------------
 SCFTYP=RHF          RUNTYP=OPTIMIZE     EXETYP=RUN     
 MPLEVL=       0     CITYP =NONE         CCTYP =NONE         VBTYP =NONE    
 DFTTYP=B3LYPV1R     TDDFT =NONE    
 MULT  =       1     ICHARG=       0     NZVAR =       0     COORD =UNIQUE  
 PP    =NONE         RELWFN=NONE         LOCAL =NONE         NUMGRD=       F
 ISPHER=      -1     NOSYM =       0     MAXIT =      30     UNITS =ANGS    
 PLTORB=       F     MOLPLT=       F     AIMPAC=       F     FRIEND=        
 NPRINT=       7     IREST =       0     GEOM  =INPUT   
 NORMF =       0     NORMP =       0     ITOL  =      20     ICUT  =       9
 INTTYP=BEST         GRDTYP=BEST         QMTTOL= 1.0E-06

     $SYSTEM OPTIONS
     ---------------
  REPLICATED MEMORY=   200000000 WORDS (ON EVERY NODE).
 DISTRIBUTED MEMDDI=           0 MILLION WORDS IN AGGREGATE,
 MEMDDI DISTRIBUTED OVER   2 PROCESSORS IS           0 WORDS/PROCESSOR.
 TOTAL MEMORY REQUESTED ON EACH PROCESSOR=   200000000 WORDS.
 TIMLIM= 99999999999.00 MINUTES, OR ********* DAYS.
 PARALL= T  BALTYP=  DLB     KDIAG=    0  COREFL= F
 MXSEQ2=     300 MXSEQ3=     150

          ----------------
          PROPERTIES INPUT
          ----------------

     MOMENTS            FIELD           POTENTIAL          DENSITY
 IEMOM =       1   IEFLD =       0   IEPOT =       0   IEDEN =       0
 WHERE =COMASS     WHERE =NUCLEI     WHERE =NUCLEI     WHERE =NUCLEI  
 OUTPUT=BOTH       OUTPUT=BOTH       OUTPUT=BOTH       OUTPUT=BOTH    
 IEMINT=       0   IEFINT=       0                     IEDINT=       0
                                                       MORB  =       0
          EXTRAPOLATION IN EFFECT
          DIIS IN EFFECT
 ORBITAL PRINTING OPTION: NPREO=     1   181     2     1

     -------------------------------
     INTEGRAL TRANSFORMATION OPTIONS
     -------------------------------
     NWORD  =            0
     CUTOFF = 1.0E-09     MPTRAN =       0
     DIRTRF =       T     AOINTS =DUP     

          ----------------------
          INTEGRAL INPUT OPTIONS
          ----------------------
 NOPK  =       1 NORDER=       0 SCHWRZ=       T

     ------------------------------------------
     THE POINT GROUP IS C1 , NAXIS= 0, ORDER= 1
     ------------------------------------------

     DIMENSIONS OF THE SYMMETRY SUBSPACES ARE
 A   =  181

 ..... DONE SETTING UP THE RUN .....
 CPU     0: STEP CPU TIME=     0.09 TOTAL CPU TIME=        0.1 (    0.0 MIN)
 TOTAL WALL CLOCK TIME=        0.2 SECONDS, CPU UTILIZATION IS  56.25%


          -----------------------------
          STATIONARY POINT LOCATION RUN
          -----------------------------

 OBTAINING INITIAL HESSIAN, HESS=GUESS   
 CARTESIAN COORDINATE OPTIMIZATION USING BADGER'S RULE FORCE CONSTANT GUESS

          PARAMETERS CONTROLLING GEOMETRY SEARCH ARE
          METHOD =QA                  UPHESS =BFGS    
          NNEG   =         0          NFRZ   =         0
          NSTEP  =         3          IFOLOW =         1
          HESS   =GUESS               RESTAR =         F
          IHREP  =         0          HSSEND =         F
          NPRT   =         0          NPUN   =         0
          OPTTOL = 5.000E-04          RMIN   = 1.500E-03
          RMAX   = 1.000E-01          RLIM   = 7.000E-02
          DXMAX  = 3.000E-01          PURIFY =         F
          MOVIE  =         F          TRUPD  =         T
          TRMAX  = 5.000E-01          TRMIN  = 5.000E-02
          ITBMAT =         5          STPT   =         F
          STSTEP = 1.000E-02          PROJCT=          T

 BEGINNING GEOMETRY SEARCH POINT NSERCH=   0 ...

 COORDINATES OF ALL ATOMS ARE (ANGS)
   ATOM   CHARGE       X              Y              Z
 ------------------------------------------------------------
 C           6.0   1.1846999742   0.8792580075   0.1084402265
 C           6.0   1.4523086164  -0.4392446067   0.1134616892
 C           6.0   0.3783964324  -1.4636017705  -0.1414094800
 C           6.0  -1.0555856952  -0.9641796660   0.1287342961
 C           6.0  -1.2385130995   0.5304369816  -0.0762204276
 C           6.0  -0.1807211774   1.3705170344  -0.0356401301
 C           6.0  -2.6477300993   1.0009599236  -0.0587857546
 O           8.0  -3.5357359197   0.3554613207   0.4643643661
 O           8.0  -2.9320164232   2.1982245637  -0.6302104034
 O           8.0  -1.3742810195  -1.2891753143   1.4802027262
 O           8.0   0.5263513293  -1.9627129972  -1.4791155785
 H           1.0   1.9812593949   1.6101546013   0.2199733865
 H           1.0   2.4723859398  -0.8024273664   0.2064468244
 H           1.0   0.5167183028  -2.3374419681   0.5024418424
 H           1.0  -1.7111284267  -1.5140052998  -0.5617610489
 H           1.0  -0.3238457516   2.4504517373  -0.0557608873
 H           1.0  -2.1578183913   2.5121003536  -1.1258540101
 H           1.0  -2.3027398390  -1.0140681042   1.5951249204
 H           1.0   0.5838958501  -1.1940448691  -2.0698194677

          ********************
          1 ELECTRON INTEGRALS
          ********************
 ...... END OF ONE-ELECTRON INTEGRALS ......
 CPU     0: STEP CPU TIME=     0.03 TOTAL CPU TIME=        0.1 (    0.0 MIN)
 TOTAL WALL CLOCK TIME=        0.2 SECONDS, CPU UTILIZATION IS  52.17%

          -------------
          GUESS OPTIONS
          -------------
          GUESS =HUCKEL            NORB  =       0          NORDER=       0
          MIX   =       F          PRTMO =       F          PUNMO =       F
          TOLZ  = 1.0E-08          TOLE  = 1.0E-05
          SYMDEN=       F          PURIFY=       F

 INITIAL GUESS ORBITALS GENERATED BY HUCKEL   ROUTINE.
 HUCKEL GUESS REQUIRES    267631 WORDS.

 SYMMETRIES FOR INITIAL GUESS ORBITALS FOLLOW.   BOTH SET(S).
    41 ORBITALS ARE OCCUPIED (   11 CORE ORBITALS).
    12=A       13=A       14=A       15=A       16=A       17=A       18=A   
    19=A       20=A       21=A       22=A       23=A       24=A       25=A   
    26=A       27=A       28=A       29=A       30=A       31=A       32=A   
    33=A       34=A       35=A       36=A       37=A       38=A       39=A   
    40=A       41=A       42=A       43=A       44=A       45=A       46=A   
    47=A       48=A       49=A       50=A       51=A   
 ...... END OF INITIAL ORBITAL SELECTION ......
 CPU     0: STEP CPU TIME=     0.12 TOTAL CPU TIME=        0.2 (    0.0 MIN)
 TOTAL WALL CLOCK TIME=        0.3 SECONDS, CPU UTILIZATION IS  68.57%

                    ----------------------
                    AO INTEGRAL TECHNOLOGY
                    ----------------------
     S,P,L SHELL ROTATED AXIS INTEGRALS, REPROGRAMMED BY
        KAZUYA ISHIMURA (IMS) AND JOSE SIERRA (SYNSTAR).
     S,P,D,L SHELL ROTATED AXIS INTEGRALS PROGRAMMED BY
        KAZUYA ISHIMURA (INSTITUTE FOR MOLECULAR SCIENCE).
     S,P,D,F,G SHELL TO TOTAL QUARTET ANGULAR MOMENTUM SUM 5,
        ERIC PROGRAM BY GRAHAM FLETCHER (ELORET AND NASA ADVANCED
        SUPERCOMPUTING DIVISION, AMES RESEARCH CENTER).
     S,P,D,F,G,L SHELL GENERAL RYS QUADRATURE PROGRAMMED BY
        MICHEL DUPUIS (PACIFIC NORTHWEST NATIONAL LABORATORY).

          --------------------
          2 ELECTRON INTEGRALS
          --------------------

 DIRECT SCF METHOD SKIPS INTEGRAL STORAGE ON DISK.
 DIRECT TRANSFORMATION SKIPS AO INTEGRAL STORAGE ON DISK.
  ...... END OF TWO-ELECTRON INTEGRALS .....
 CPU     0: STEP CPU TIME=     0.01 TOTAL CPU TIME=        0.2 (    0.0 MIN)
 TOTAL WALL CLOCK TIME=        0.4 SECONDS, CPU UTILIZATION IS  65.79%

          --------------------------
          R-B3LYPV1R SCF CALCULATION
          --------------------------

     NUCLEAR ENERGY =       624.2404910108
     MAXIT =   30     NPUNCH=    2
     EXTRAP=T  DAMP=F  SHIFT=F  RSTRCT=F  DIIS=T  DEM=F  SOSCF=F
         DENSITY MATRIX CONVERGENCE THRESHOLD=  2.00E-05
     COARSE -> FINE DFT GRID SWITCH THRESHOLD=  3.00E-04 (SWITCH IN $DFT)
                   HF -> DFT SWITCH THRESHOLD=  5.00E-03 (SWOFF IN $DFT)
     MEMORY REQUIRED FOR RHF ITERS=    919411 WORDS.

 DIRECT SCF CALCULATION, SCHWRZ=T   FDIFF=T,  DIRTHR=  0.00E+00 NITDIR=10
 SCHWARZ INEQUALITY OVERHEAD:     15868 INTEGRALS, T=        0.01

 DFT CODE IS SWITCHING FROM THE FINE GRID NRAD= 96,  NLEB=  302
                      TO THE COARSE GRID NRAD0= 24, NLEB0=  110

     EXCHANGE FUNCTIONAL   =B88&HFX   
     CORRELATION FUNCTIONAL=LYP88VWN1R
     DFT THRESHOLD         =.726E-08
     GRID CHANGE THRESHOLD =.300E-03
 FOR AN EULER-MACLAURIN QUADRATURE USING  96 RADIAL POINTS:
 SMALLEST GAUSSIAN PRIMITIVE EXPONENT=        0.1612777588 OF TYPE -S-
 ON ATOM NUMBER  12 HAS RADIAL NORMALIZATION=  1.000000
  LARGEST GAUSSIAN PRIMITIVE EXPONENT=     5484.6716600000 OF TYPE -S-
 ON ATOM NUMBER   8 HAS RADIAL NORMALIZATION=  1.000000
 DFT IS SWITCHED OFF, PERFORMING PURE SCF UNTIL SWOFF THRESHOLD IS REACHED.

                                                                                   NONZERO     BLOCKS
 ITER EX DEM     TOTAL ENERGY        E CHANGE  DENSITY CHANGE    DIIS ERROR      INTEGRALS    SKIPPED
   1  0  0     -567.4022352904  -567.4022352904   0.283565841   0.782863294       91203799     635911
          * * *   INITIATING DIIS PROCEDURE   * * *
   2  1  0     -568.9610739794    -1.5588386889   0.213785298   0.086755228       91277026     647652
   3  2  0     -569.0675676304    -0.1064936510   0.117847126   0.072960353       90406049     685031
   4  3  0     -569.1342863825    -0.0667187521   0.022291193   0.008007763       89108842     720691
   5  4  0     -569.1371762036    -0.0028898211   0.004976575   0.002404471       87157625     758434
 CONVERGED TO SWOFF, SO DFT CALCULATION IS NOW SWITCHED ON.
          * * *   INITIATING DIIS PROCEDURE   * * *
   6  5  0     -572.3374739215    -3.2002977179   0.129989383   0.090980074       91290478     634739
   7  6  0     -572.3915624451    -0.0540885237   0.063109222   0.017736442       90620813     675156
   8  7  0     -572.3862267837     0.0053356614   0.054501394   0.026023362       89199782     713921
   9  8  0     -572.4001568225    -0.0139300388   0.016139783   0.009824335       88237439     736442
  10  9  0     -572.4010214643    -0.0008646418   0.002889404   0.002237924       84571468     799360
  11 10  0     -572.4010616055    -0.0000401412   0.000768104   0.000539182       80547547     862605
  12 11  0     -572.4010646887    -0.0000030832   0.000275209   0.000088068       76078087     920818
 DFT CODE IS SWITCHING BACK TO THE FINE GRID
          * * *   INITIATING DIIS PROCEDURE   * * *
  13 12  0     -572.4027794713    -0.0017147826   0.003178295   0.001362498       91344197     628718
  14 13  0     -572.4028361592    -0.0000566879   0.001488020   0.000324104       83368879     824267
  15 14  0     -572.4028331434     0.0000030158   0.000835673   0.000526015       78706601     886948
  16 15  0     -572.4028394245    -0.0000062810   0.000126272   0.000065005       76545775     915384
  17 16  0     -572.4028394315    -0.0000000071   0.000071645   0.000043703       68512240    1018453
  18 17  0     -572.4028394625    -0.0000000310   0.000014456   0.000006290       64832084    1064180
  19 18  0     -572.4028394632    -0.0000000007   0.000006562   0.000004475       59305164    1126574

          -----------------
          DENSITY CONVERGED
          -----------------
     TIME TO FORM FOCK OPERATORS=     198.5 SECONDS (      10.4 SEC/ITER)
     FOCK TIME ON FIRST ITERATION=       6.2, LAST ITERATION=      16.3
     TIME TO SOLVE SCF EQUATIONS=       0.9 SECONDS (       0.0 SEC/ITER)

 FINAL R-B3LYPV1R ENERGY IS     -572.4028394632 AFTER  19 ITERATIONS
 DFT EXCHANGE + CORRELATION ENERGY =       -60.9352830889
 TOTAL ELECTRON NUMBER             =        81.9997770323

          ------------
          EIGENVECTORS
          ------------

                      1          2          3          4          5
                  -19.2090   -19.1595   -19.1493   -19.1430   -10.3341
                     A          A          A          A          A   
    1  C  1  S    0.000001  -0.000026   0.000016   0.000002  -0.000041
    2  C  1  S    0.000002  -0.000115   0.000091   0.000012  -0.000201
    3  C  1  X   -0.000023   0.000019  -0.000002   0.000011   0.000020
    4  C  1  Y    0.000017   0.000019  -0.000011   0.000003   0.000003
    5  C  1  Z   -0.000006   0.000024  -0.000004   0.000006   0.000018
    6  C  1  S    0.000213   0.001421  -0.000864  -0.000525   0.001672
    7  C  1  X   -0.000035  -0.000713   0.000437   0.000285  -0.001193
    8  C  1  Y   -0.000077  -0.000558   0.000343   0.000082  -0.000059
    9  C  1  Z    0.000005  -0.000113   0.000110   0.000002  -0.000226
   10  C  1 XX    0.000000  -0.000020  -0.000012  -0.000004   0.000046
   11  C  1 YY    0.000002  -0.000025   0.000001   0.000009  -0.000015
   12  C  1 ZZ    0.000007  -0.000050   0.000036  -0.000004  -0.000080
   13  C  1 XY   -0.000004  -0.000009   0.000002  -0.000002  -0.000009
   14  C  1 XZ    0.000001   0.000015  -0.000010  -0.000004   0.000019
   15  C  1 YZ   -0.000002  -0.000001   0.000002  -0.000004  -0.000000
   16  C  2  S    0.000001   0.000025  -0.000004  -0.000015   0.000004
   17  C  2  S   -0.000004   0.000193  -0.000020  -0.000074   0.000029
   18  C  2  X   -0.000015  -0.000014   0.000014   0.000003   0.000008
   19  C  2  Y   -0.000019  -0.000023   0.000018   0.000009  -0.000013
   20  C  2  Z   -0.000008   0.000006   0.000000   0.000021   0.000013
   21  C  2  S    0.000082  -0.001364   0.000357   0.000601  -0.000655
   22  C  2  X   -0.000097   0.000881  -0.000260  -0.000414   0.000681
   23  C  2  Y   -0.000047  -0.000197   0.000265  -0.000022  -0.000010
   24  C  2  Z   -0.000046  -0.000017  -0.000078   0.000035   0.000170
   25  C  2 XX    0.000009  -0.000020  -0.000010   0.000012  -0.000004
   26  C  2 YY   -0.000000   0.000002   0.000001  -0.000029   0.000003
   27  C  2 ZZ    0.000008  -0.000003  -0.000003  -0.000027  -0.000012
   28  C  2 XY    0.000003  -0.000038  -0.000014   0.000008   0.000004
   29  C  2 XZ    0.000010  -0.000007   0.000006  -0.000023  -0.000016
   30  C  2 YZ    0.000001  -0.000038   0.000005  -0.000015  -0.000003
   31  C  3  S    0.000025  -0.000009   0.000009   0.000007  -0.000071
   32  C  3  S    0.000124   0.000104   0.000042   0.000082  -0.000265
   33  C  3  X    0.000003   0.000036  -0.000042  -0.000043   0.000044
   34  C  3  Y    0.000023  -0.000147   0.000003   0.000044  -0.000031
   35  C  3  Z   -0.000005  -0.000313  -0.000011   0.000021   0.000000
   36  C  3  S   -0.000836  -0.000667  -0.000276   0.000390   0.001750
   37  C  3  X    0.000200  -0.000239   0.000202  -0.000086  -0.000386
   38  C  3  Y   -0.000273   0.001449   0.000038  -0.000672   0.000486
   39  C  3  Z    0.000127   0.001265   0.000288  -0.000472  -0.000366
   40  C  3 XX    0.000012   0.000066   0.000000  -0.000036  -0.000024
   41  C  3 YY    0.000029   0.000083   0.000017  -0.000002  -0.000050
   42  C  3 ZZ    0.000027   0.000216   0.000006   0.000021  -0.000062
   43  C  3 XY    0.000012  -0.000004   0.000002   0.000008  -0.000010
   44  C  3 XZ    0.000007  -0.000037  -0.000005   0.000041   0.000004
   45  C  3 YZ   -0.000014   0.000128  -0.000003   0.000039   0.000015
   46  C  4  S    0.000009   0.000038   0.000040  -0.000005  -0.000077
   47  C  4  S    0.000014   0.000240   0.000155   0.000138  -0.000244
   48  C  4  X   -0.000053   0.000060  -0.000020  -0.000016   0.000071
   49  C  4  Y    0.000051  -0.000001  -0.000014  -0.000050  -0.000082
   50  C  4  Z   -0.000010   0.000008   0.000044   0.000332  -0.000011
   51  C  4  S    0.000483  -0.001422  -0.001753  -0.000765   0.000770
   52  C  4  X    0.000352  -0.000728   0.000209  -0.000048  -0.000379
   53  C  4  Y   -0.000015  -0.000805  -0.000907   0.000984   0.001040
   54  C  4  Z   -0.000095  -0.000058  -0.000444  -0.001005   0.000672
   55  C  4 XX    0.000031  -0.000014   0.000121   0.000048  -0.000100
   56  C  4 YY    0.000033   0.000028   0.000002   0.000082   0.000043
   57  C  4 ZZ    0.000026   0.000029   0.000051   0.000239  -0.000065
   58  C  4 XY   -0.000023   0.000000  -0.000020   0.000012   0.000052
   59  C  4 XZ   -0.000001   0.000027   0.000010  -0.000052  -0.000008
   60  C  4 YZ    0.000007  -0.000015   0.000003  -0.000079  -0.000021
   61  C  5  S    0.000012  -0.000027  -0.000002   0.000039   0.001112
   62  C  5  S    0.000141  -0.000117   0.000053   0.000219  -0.000266
   63  C  5  X   -0.000032  -0.000022  -0.000009   0.000011   0.000321
   64  C  5  Y   -0.000045   0.000035   0.000066  -0.000070  -0.000151
   65  C  5  Z    0.000036   0.000021  -0.000035   0.000021   0.000008
   66  C  5  S   -0.001045   0.001332  -0.000610  -0.001053   0.005372
   67  C  5  X    0.001692   0.000850   0.000012  -0.000120  -0.004351
   68  C  5  Y    0.000600  -0.000714  -0.002238   0.000957   0.001965
   69  C  5  Z   -0.000333   0.000083   0.000748  -0.000142  -0.000443
   70  C  5 XX   -0.000072  -0.000032  -0.000103   0.000072  -0.000412
   71  C  5 YY   -0.000027  -0.000013   0.000022  -0.000008  -0.000307
   72  C  5 ZZ    0.000019  -0.000050  -0.000001   0.000027  -0.000220
   73  C  5 XY    0.000054  -0.000005  -0.000027  -0.000001   0.000022
   74  C  5 XZ    0.000031   0.000005   0.000002   0.000016   0.000001
   75  C  5 YZ    0.000014  -0.000010  -0.000010   0.000043   0.000038
   76  C  6  S    0.000002   0.000008   0.000000  -0.000010  -0.000023
   77  C  6  S    0.000005   0.000061  -0.000002  -0.000056  -0.000126
   78  C  6  X    0.000033  -0.000007  -0.000078   0.000005   0.000138
   79  C  6  Y    0.000006   0.000016   0.000004   0.000012  -0.000076
   80  C  6  Z    0.000018   0.000009  -0.000016   0.000004  -0.000012
   81  C  6  S   -0.000983  -0.001121   0.001372   0.000262  -0.000491
   82  C  6  X    0.000057  -0.000299  -0.000032   0.000313  -0.001287
   83  C  6  Y    0.000542   0.000788  -0.000413  -0.000401  -0.000280
   84  C  6  Z    0.000030  -0.000052  -0.000168   0.000082   0.000041
   85  C  6 XX    0.000011  -0.000003   0.000027  -0.000016  -0.000023
   86  C  6 YY   -0.000020  -0.000025  -0.000011   0.000007   0.000119
   87  C  6 ZZ    0.000009   0.000005   0.000015  -0.000014  -0.000090
   88  C  6 XY   -0.000016   0.000009   0.000006  -0.000008   0.000114
   89  C  6 XZ   -0.000003   0.000002   0.000027   0.000002  -0.000018
   90  C  6 YZ   -0.000020   0.000001   0.000029  -0.000018   0.000003
   91  C  7  S   -0.000024  -0.000000  -0.000020   0.000003   0.992969
   92  C  7  S    0.000245  -0.000007   0.000372  -0.000004   0.048450
   93  C  7  X   -0.000155   0.000007  -0.000001  -0.000034  -0.000643
   94  C  7  Y    0.000347  -0.000000   0.000064  -0.000027   0.000427
   95  C  7  Z   -0.000127   0.000006  -0.000041   0.000014  -0.000084
   96  C  7  S   -0.000949   0.000380  -0.002791   0.000189  -0.009068
   97  C  7  X    0.001763   0.000160   0.003513  -0.000217  -0.006795
   98  C  7  Y   -0.003011   0.000025   0.002605  -0.000351   0.001020
   99  C  7  Z    0.001058  -0.000034  -0.001967   0.000182   0.000786
  100  C  7 XX    0.000011   0.000014  -0.000470   0.000016  -0.008686
  101  C  7 YY   -0.000014  -0.000000  -0.000307   0.000032  -0.008566
  102  C  7 ZZ   -0.000051  -0.000001  -0.000244   0.000010  -0.009149
  103  C  7 XY   -0.000039   0.000009  -0.000395   0.000003   0.000209
  104  C  7 XZ   -0.000001  -0.000003   0.000315  -0.000008  -0.000302
  105  C  7 YZ   -0.000009  -0.000005   0.000218  -0.000023  -0.000603
  106  O  8  S   -0.000028   0.000000   0.992668   0.000029  -0.000069
  107  O  8  S    0.000086   0.000001   0.025389  -0.000000   0.000696
  108  O  8  X    0.000036   0.000002   0.000858  -0.000008  -0.000035
  109  O  8  Y   -0.000035  -0.000003   0.000616   0.000023   0.000051
  110  O  8  Z    0.000002   0.000001  -0.000495  -0.000025  -0.000042
  111  O  8  S   -0.000268   0.000005   0.015817  -0.000210  -0.004550
  112  O  8  X   -0.000431  -0.000023   0.001534  -0.000058  -0.000996
  113  O  8  Y    0.000356   0.000000   0.000975  -0.000191  -0.001882
  114  O  8  Z   -0.000043   0.000005  -0.000846   0.000184   0.001273
  115  O  8 XX   -0.000031  -0.000004  -0.008061  -0.000031   0.000346
  116  O  8 YY   -0.000004  -0.000001  -0.008219  -0.000002   0.000191
  117  O  8 ZZ    0.000023   0.000002  -0.008277  -0.000013   0.000430
  118  O  8 XY    0.000000  -0.000003   0.000245  -0.000039  -0.000226
  119  O  8 XZ    0.000025   0.000005  -0.000209   0.000032   0.000193
  120  O  8 YZ    0.000041   0.000003  -0.000170  -0.000014   0.000296
  121  O  9  S    0.992685  -0.000000   0.000061  -0.000005  -0.000016
  122  O  9  S    0.025677  -0.000000   0.000159  -0.000018   0.000342
  123  O  9  X    0.000945  -0.000001   0.000052   0.000001  -0.000106
  124  O  9  Y   -0.000349   0.000001  -0.000003   0.000006   0.000061
  125  O  9  Z   -0.000147   0.000000  -0.000005  -0.000003   0.000009
  126  O  9  S    0.013828  -0.000031  -0.000943   0.000156  -0.001277
  127  O  9  X   -0.000083   0.000000  -0.000565   0.000020   0.000775
  128  O  9  Y   -0.001050   0.000010   0.000170  -0.000024   0.001485
  129  O  9  Z    0.000607  -0.000008   0.000004   0.000015  -0.001000
  130  O  9 XX   -0.008300   0.000004   0.000034  -0.000012   0.000316
  131  O  9 YY   -0.008190  -0.000003   0.000048  -0.000021  -0.000504
  132  O  9 ZZ   -0.008222  -0.000004   0.000048  -0.000011   0.000166
  133  O  9 XY    0.000015  -0.000002  -0.000027   0.000002   0.000059
  134  O  9 XZ    0.000016  -0.000002   0.000035  -0.000001  -0.000035
  135  O  9 YZ   -0.000034  -0.000001   0.000030   0.000005   0.000531
  136  O 10  S   -0.000007  -0.000003  -0.000069   0.992762   0.000017
  137  O 10  S   -0.000034   0.000032  -0.000186   0.025923   0.000103
  138  O 10  X   -0.000001   0.000011   0.000023  -0.000652   0.000018
  139  O 10  Y    0.000003  -0.000003   0.000004   0.000413  -0.000008
  140  O 10  Z    0.000002  -0.000008  -0.000024  -0.000596  -0.000009
  141  O 10  S    0.000178  -0.000076   0.001103   0.011821  -0.000634
  142  O 10  X   -0.000054  -0.000000  -0.000211   0.000176  -0.000049
  143  O 10  Y    0.000038   0.000092   0.000152   0.000016  -0.000171
  144  O 10  Z   -0.000032   0.000035  -0.000088  -0.000414   0.000218
  145  O 10 XX   -0.000025   0.000022  -0.000043  -0.008055   0.000042
  146  O 10 YY   -0.000012   0.000043  -0.000123  -0.008038   0.000033
  147  O 10 ZZ   -0.000021   0.000015  -0.000115  -0.008099   0.000035
  148  O 10 XY    0.000001   0.000009  -0.000012   0.000004  -0.000010
  149  O 10 XZ    0.000011  -0.000009  -0.000008  -0.000018  -0.000013
  150  O 10 YZ   -0.000010  -0.000018  -0.000010   0.000037   0.000045
  151  O 11  S   -0.000009   0.992773  -0.000006   0.000045   0.000016
  152  O 11  S   -0.000047   0.025923  -0.000032   0.000155   0.000082
  153  O 11  X    0.000002  -0.000024  -0.000003  -0.000004  -0.000005
  154  O 11  Y   -0.000008   0.000998   0.000002   0.000010   0.000006
  155  O 11  Z   -0.000002   0.000119  -0.000007   0.000025   0.000008
  156  O 11  S    0.000277   0.011831   0.000224  -0.000827  -0.000535
  157  O 11  X   -0.000031  -0.000073  -0.000017   0.000064   0.000073
  158  O 11  Y    0.000092   0.000021   0.000021  -0.000086  -0.000141
  159  O 11  Z    0.000072   0.000600   0.000092  -0.000310  -0.000178
  160  O 11 XX   -0.000036  -0.007996  -0.000020   0.000107   0.000058
  161  O 11 YY   -0.000015  -0.008062  -0.000013   0.000097   0.000026
  162  O 11 ZZ   -0.000023  -0.008039  -0.000009   0.000051   0.000037
  163  O 11 XY   -0.000001   0.000004  -0.000006   0.000012   0.000009
  164  O 11 XZ   -0.000007   0.000005  -0.000006   0.000014   0.000015
  165  O 11 YZ    0.000010  -0.000027   0.000003  -0.000004  -0.000013
  166  H 12  S    0.000004   0.000032  -0.000012  -0.000004  -0.000001
  167  H 12  S   -0.000008   0.000230  -0.000161  -0.000047   0.000293
  168  H 13  S    0.000004  -0.000014   0.000021   0.000004  -0.000042
  169  H 13  S    0.000015  -0.000221   0.000100   0.000097  -0.000150
  170  H 14  S    0.000006   0.000117  -0.000007   0.000079  -0.000023
  171  H 14  S   -0.000049   0.000204  -0.000047  -0.000441   0.000121
  172  H 15  S    0.000020   0.000059   0.000034   0.000035  -0.000066
  173  H 15  S    0.000019  -0.000402  -0.000039   0.000027   0.000361
  174  H 16  S   -0.000021  -0.000027   0.000024   0.000021  -0.000107
  175  H 16  S   -0.000032  -0.000219  -0.000006   0.000156   0.000330
  176  H 17  S    0.000437   0.000000   0.000098  -0.000003  -0.000075
  177  H 17  S   -0.001083  -0.000006  -0.000137   0.000012  -0.000168
  178  H 18  S   -0.000013  -0.000004  -0.000060   0.000427  -0.000005
  179  H 18  S   -0.000064  -0.000036  -0.000549  -0.001335  -0.000016
  180  H 19  S   -0.000013   0.000400  -0.000002   0.000048   0.000031
  181  H 19  S   -0.000012  -0.001097   0.000026  -0.000086  -0.000040

                      6          7          8          9         10
                  -10.2504   -10.2481   -10.2339   -10.2232   -10.2180
                     A          A          A          A          A   
    1  C  1  S    0.000005  -0.000126   0.010531  -0.001284   0.981439
    2  C  1  S   -0.000008  -0.000149   0.000068  -0.000014   0.049063
    3  C  1  X   -0.000013   0.000061   0.000277   0.000021  -0.000316
    4  C  1  Y    0.000163   0.000076  -0.000034  -0.000028  -0.000044
    5  C  1  Z    0.000036  -0.000065   0.000028  -0.000001  -0.000044
    6  C  1  S   -0.002037   0.002262   0.006765  -0.001948  -0.016666
    7  C  1  X    0.001700  -0.001156  -0.003164   0.000821   0.002879
    8  C  1  Y    0.000337  -0.000474  -0.001208   0.001004   0.002313
    9  C  1  Z    0.000193   0.000051  -0.000352  -0.000025   0.000302
   10  C  1 XX    0.000001  -0.000040  -0.000536   0.000107  -0.009238
   11  C  1 YY    0.000025  -0.000045  -0.000380   0.000050  -0.009050
   12  C  1 ZZ   -0.000044  -0.000101  -0.000307   0.000047  -0.009433
   13  C  1 XY   -0.000043  -0.000052   0.000176  -0.000000  -0.000073
   14  C  1 XZ    0.000045  -0.000020  -0.000036   0.000016   0.000028
   15  C  1 YZ    0.000007  -0.000015   0.000029  -0.000013   0.000010
   16  C  2  S    0.003446  -0.000272   0.000227  -0.000402   0.148936
   17  C  2  S   -0.000318  -0.000110   0.000036  -0.000114   0.006820
   18  C  2  X    0.000145   0.000198   0.000007   0.000027   0.000088
   19  C  2  Y    0.000030   0.000026  -0.000058   0.000034  -0.000279
   20  C  2  Z    0.000013  -0.000038   0.000006  -0.000005  -0.000010
   21  C  2  S    0.007343  -0.001596  -0.002642   0.001612   0.004719
   22  C  2  X   -0.004274   0.000425   0.001313  -0.000718  -0.001889
   23  C  2  Y   -0.001632  -0.000065  -0.000569   0.000358   0.002346
   24  C  2  Z   -0.000993   0.000022   0.000195   0.000080  -0.000014
   25  C  2 XX   -0.000234  -0.000005   0.000052  -0.000021  -0.001620
   26  C  2 YY   -0.000302  -0.000028   0.000085   0.000008  -0.001699
   27  C  2 ZZ   -0.000257  -0.000099  -0.000002  -0.000045  -0.001594
   28  C  2 XY   -0.000163  -0.000015  -0.000001   0.000003  -0.000040
   29  C  2 XZ    0.000039  -0.000046  -0.000009  -0.000017  -0.000012
   30  C  2 YZ   -0.000035   0.000063  -0.000004  -0.000006  -0.000015
   31  C  3  S    0.992246  -0.044636   0.000110   0.000046  -0.000555
   32  C  3  S    0.050248  -0.002791  -0.000180   0.000006  -0.000002
   33  C  3  X    0.000052  -0.000094   0.000032   0.000044  -0.000070
   34  C  3  Y    0.000111   0.000061  -0.000014  -0.000062  -0.000118
   35  C  3  Z   -0.000579   0.000032   0.000015   0.000019   0.000012
   36  C  3  S   -0.024228   0.008482   0.001944  -0.000944  -0.001380
   37  C  3  X    0.000537  -0.002901  -0.000245   0.000069   0.000555
   38  C  3  Y   -0.003092   0.001764   0.000709  -0.000460  -0.000372
   39  C  3  Z    0.000523   0.001506  -0.000090  -0.000609  -0.000599
   40  C  3 XX   -0.008753   0.000051  -0.000022   0.000009  -0.000032
   41  C  3 YY   -0.008583   0.000242  -0.000053   0.000014   0.000001
   42  C  3 ZZ   -0.008453   0.000173  -0.000053   0.000038  -0.000015
   43  C  3 XY   -0.000005   0.000007   0.000017  -0.000006  -0.000006
   44  C  3 XZ   -0.000004   0.000010   0.000002  -0.000012   0.000020
   45  C  3 YZ   -0.000083   0.000036   0.000017   0.000004  -0.000025
   46  C  4  S    0.044299   0.992283  -0.000205  -0.004738   0.000049
   47  C  4  S    0.001687   0.050433  -0.000042  -0.000227  -0.000224
   48  C  4  X    0.000010   0.000059  -0.000052  -0.000034  -0.000044
   49  C  4  Y    0.000073   0.000160  -0.000106  -0.000083  -0.000026
   50  C  4  Z    0.000024   0.000549  -0.000018  -0.000103  -0.000028
   51  C  4  S    0.006536  -0.026431  -0.001123   0.002714   0.001806
   52  C  4  X    0.002957  -0.002902  -0.000763   0.000793   0.000791
   53  C  4  Y   -0.000519  -0.002972  -0.000064   0.001541   0.000212
   54  C  4  Z   -0.001783  -0.000719   0.000642  -0.000699   0.000383
   55  C  4 XX   -0.000644  -0.008559  -0.000006  -0.000049  -0.000049
   56  C  4 YY   -0.000591  -0.008695   0.000028  -0.000354  -0.000058
   57  C  4 ZZ   -0.000640  -0.008418   0.000008  -0.000147  -0.000048
   58  C  4 XY    0.000050   0.000065  -0.000014   0.000070  -0.000017
   59  C  4 XZ    0.000007   0.000057   0.000015   0.000061  -0.000022
   60  C  4 YZ    0.000022   0.000058  -0.000011   0.000073  -0.000021
   61  C  5  S    0.000173   0.004503   0.035470   0.992205   0.000995
   62  C  5  S    0.000064  -0.000240   0.001183   0.049952   0.000111
   63  C  5  X   -0.000206  -0.000134  -0.000323  -0.000104  -0.000027
   64  C  5  Y    0.000089   0.000218  -0.000198   0.000126   0.000031
   65  C  5  Z    0.000082  -0.000049  -0.000019   0.000173  -0.000028
   66  C  5  S   -0.002223   0.007156   0.006384  -0.018829  -0.003041
   67  C  5  X    0.001851   0.003325   0.004027  -0.000518  -0.001403
   68  C  5  Y    0.000480  -0.005957   0.001112  -0.000712  -0.000358
   69  C  5  Z   -0.000193   0.001338   0.000059  -0.000878  -0.000117
   70  C  5 XX   -0.000031  -0.000149  -0.000610  -0.008988   0.000038
   71  C  5 YY   -0.000015  -0.000395  -0.000676  -0.009119   0.000074
   72  C  5 ZZ   -0.000026  -0.000235  -0.000505  -0.009359  -0.000002
   73  C  5 XY    0.000064   0.000017  -0.000039   0.000190   0.000025
   74  C  5 XZ   -0.000024   0.000046   0.000010   0.000016  -0.000008
   75  C  5 YZ   -0.000035  -0.000028   0.000023  -0.000043   0.000017
   76  C  6  S   -0.000180   0.000039   0.992106  -0.035972  -0.010853
   77  C  6  S   -0.000135  -0.000034   0.049620  -0.002447  -0.001009
   78  C  6  X    0.000031   0.000055   0.000050   0.000302  -0.000294
   79  C  6  Y    0.000122   0.000124  -0.000179   0.000315   0.000149
   80  C  6  Z    0.000054  -0.000056  -0.000023  -0.000012  -0.000028
   81  C  6  S    0.000905  -0.001723  -0.018004   0.007499   0.007565
   82  C  6  X    0.000832  -0.001393  -0.000114  -0.001839   0.001564
   83  C  6  Y   -0.000403   0.001884   0.003972  -0.002484  -0.002876
   84  C  6  Z    0.000044  -0.000252  -0.000130   0.000315   0.000227
   85  C  6 XX    0.000017   0.000086  -0.009161  -0.000025  -0.000426
   86  C  6 YY   -0.000106  -0.000062  -0.009267   0.000015  -0.000098
   87  C  6 ZZ   -0.000090  -0.000054  -0.009513   0.000161  -0.000106
   88  C  6 XY   -0.000023  -0.000006   0.000121  -0.000116   0.000064
   89  C  6 XZ   -0.000006   0.000044   0.000025  -0.000045  -0.000046
   90  C  6 YZ    0.000000  -0.000026   0.000007  -0.000055   0.000002
   91  C  7  S   -0.000036  -0.000032  -0.000056  -0.001428  -0.000015
   92  C  7  S   -0.000276  -0.000293  -0.000123  -0.000356  -0.000079
   93  C  7  X    0.000036   0.000071  -0.000020  -0.000239  -0.000001
   94  C  7  Y   -0.000015   0.000071  -0.000029   0.000098  -0.000005
   95  C  7  Z   -0.000024  -0.000006  -0.000004   0.000009   0.000006
   96  C  7  S    0.001955   0.000994   0.001119   0.004413   0.000034
   97  C  7  X    0.001379   0.002002   0.000405   0.002422   0.000412
   98  C  7  Y   -0.001377   0.000548  -0.000509  -0.001196   0.000384
   99  C  7  Z    0.000485  -0.000671   0.000096   0.000466  -0.000133
  100  C  7 XX    0.000005  -0.000004   0.000052  -0.000582  -0.000005
  101  C  7 YY   -0.000072  -0.000088  -0.000003  -0.000316  -0.000034
  102  C  7 ZZ   -0.000094  -0.000122  -0.000045  -0.000154  -0.000029
  103  C  7 XY   -0.000033   0.000023   0.000014   0.000179   0.000001
  104  C  7 XZ   -0.000033  -0.000015  -0.000018   0.000033   0.000014
  105  C  7 YZ   -0.000020   0.000012   0.000014  -0.000011  -0.000010
  106  O  8  S   -0.000015  -0.000101   0.000006  -0.000002  -0.000015
  107  O  8  S   -0.000050  -0.000436   0.000020  -0.000051  -0.000067
  108  O  8  X   -0.000012  -0.000067   0.000008   0.000011   0.000003
  109  O  8  Y    0.000004   0.000009  -0.000005  -0.000009  -0.000001
  110  O  8  Z    0.000025   0.000026   0.000010  -0.000008   0.000008
  111  O  8  S   -0.000072   0.002426  -0.000224  -0.000199   0.000479
  112  O  8  X   -0.000175   0.000491  -0.000080  -0.000235   0.000048
  113  O  8  Y    0.000117   0.000323  -0.000008   0.000238   0.000058
  114  O  8  Z   -0.000123  -0.000303   0.000010  -0.000108  -0.000090
  115  O  8 XX   -0.000057  -0.000240   0.000027   0.000038  -0.000047
  116  O  8 YY   -0.000010  -0.000278   0.000021   0.000041  -0.000042
  117  O  8 ZZ   -0.000075  -0.000339   0.000008  -0.000035  -0.000035
  118  O  8 XY   -0.000024   0.000011  -0.000018   0.000007   0.000006
  119  O  8 XZ   -0.000021  -0.000044   0.000000  -0.000032  -0.000006
  120  O  8 YZ   -0.000043  -0.000035   0.000008  -0.000103  -0.000006
  121  O  9  S   -0.000042  -0.000023   0.000004  -0.000020   0.000001
  122  O  9  S   -0.000179  -0.000097   0.000010  -0.000143   0.000012
  123  O  9  X    0.000017   0.000000   0.000011   0.000019  -0.000008
  124  O  9  Y    0.000030   0.000028   0.000015   0.000058   0.000002
  125  O  9  Z   -0.000020  -0.000024  -0.000011  -0.000001  -0.000003
  126  O  9  S    0.001055   0.000182  -0.000019   0.000421  -0.000183
  127  O  9  X   -0.000139  -0.000141  -0.000109  -0.000232  -0.000051
  128  O  9  Y   -0.000327  -0.000201  -0.000106  -0.000362   0.000030
  129  O  9  Z    0.000204   0.000169   0.000085   0.000126  -0.000007
  130  O  9 XX   -0.000133  -0.000064   0.000003  -0.000028   0.000007
  131  O  9 YY   -0.000088  -0.000028   0.000028   0.000019   0.000002
  132  O  9 ZZ   -0.000124  -0.000095   0.000011  -0.000098  -0.000012
  133  O  9 XY    0.000013  -0.000010  -0.000007  -0.000020   0.000010
  134  O  9 XZ   -0.000002  -0.000001   0.000003  -0.000020   0.000004
  135  O  9 YZ   -0.000026  -0.000049  -0.000008  -0.000075  -0.000008
  136  O 10  S   -0.000055  -0.000183   0.000026  -0.000124   0.000015
  137  O 10  S   -0.000269  -0.000566   0.000127  -0.000562   0.000079
  138  O 10  X   -0.000080  -0.000063  -0.000007  -0.000029  -0.000003
  139  O 10  Y   -0.000031  -0.000042   0.000003  -0.000132   0.000003
  140  O 10  Z    0.000092   0.000115  -0.000029   0.000102   0.000001
  141  O 10  S    0.000886   0.004817  -0.000602   0.002162  -0.000551
  142  O 10  X    0.000248   0.000653   0.000034   0.000001  -0.000094
  143  O 10  Y    0.000193   0.000536  -0.000092   0.000579  -0.000094
  144  O 10  Z   -0.000394  -0.001045   0.000191  -0.000678   0.000163
  145  O 10 XX   -0.000077  -0.000275   0.000069  -0.000444   0.000030
  146  O 10 YY   -0.000228  -0.000306   0.000057  -0.000282   0.000036
  147  O 10 ZZ   -0.000136  -0.000859   0.000076  -0.000318   0.000031
  148  O 10 XY   -0.000039   0.000065  -0.000005  -0.000035  -0.000018
  149  O 10 XZ   -0.000060   0.000121   0.000002  -0.000040   0.000023
  150  O 10 YZ   -0.000058   0.000119   0.000021  -0.000129   0.000014
  151  O 11  S   -0.000172  -0.000057   0.000012   0.000052   0.000038
  152  O 11  S   -0.000522  -0.000254   0.000053   0.000222   0.000147
  153  O 11  X    0.000029   0.000008   0.000003  -0.000021   0.000003
  154  O 11  Y   -0.000049  -0.000052   0.000014   0.000022   0.000023
  155  O 11  Z   -0.000134  -0.000064  -0.000019   0.000020  -0.000010
  156  O 11  S    0.004390   0.000774  -0.000389  -0.001053  -0.000788
  157  O 11  X   -0.000252   0.000165   0.000019   0.000115  -0.000051
  158  O 11  Y    0.000657   0.000126  -0.000151  -0.000163  -0.000147
  159  O 11  Z    0.000960   0.000103  -0.000008  -0.000182   0.000029
  160  O 11 XX   -0.000290  -0.000148   0.000046   0.000156   0.000129
  161  O 11 YY   -0.000239  -0.000228   0.000016   0.000157   0.000093
  162  O 11 ZZ   -0.000859  -0.000151   0.000035   0.000143   0.000130
  163  O 11 XY   -0.000030  -0.000080   0.000011   0.000022  -0.000011
  164  O 11 XZ    0.000044   0.000007   0.000005   0.000022  -0.000012
  165  O 11 YZ   -0.000205   0.000033  -0.000007  -0.000016   0.000001
  166  H 12  S   -0.000070   0.000024   0.000003  -0.000049  -0.000442
  167  H 12  S   -0.000231   0.000297   0.000636  -0.000219   0.001097
  168  H 13  S   -0.000051   0.000002  -0.000037   0.000017  -0.000040
  169  H 13  S    0.000855   0.000263  -0.000215   0.000140   0.000695
  170  H 14  S    0.000130  -0.000254  -0.000016   0.000040   0.000060
  171  H 14  S    0.002607  -0.000475   0.000047   0.000195   0.000243
  172  H 15  S   -0.000268   0.000137   0.000058  -0.000073   0.000000
  173  H 15  S   -0.000327   0.002471   0.000188   0.000293   0.000135
  174  H 16  S    0.000019  -0.000084  -0.000431  -0.000017  -0.000006
  175  H 16  S    0.000126  -0.000599   0.001102   0.000023   0.000488
  176  H 17  S    0.000020   0.000020   0.000008  -0.000017   0.000018
  177  H 17  S    0.000112   0.000131   0.000179   0.000327   0.000019
  178  H 18  S    0.000014   0.000012   0.000054  -0.000235   0.000011
  179  H 18  S    0.000312   0.000191  -0.000033   0.000136   0.000035
  180  H 19  S   -0.000073  -0.000074  -0.000012  -0.000001  -0.000048
  181  H 19  S    0.000314  -0.000131   0.000158   0.000179   0.000377

                     11         12         13         14         15
                  -10.2153    -1.1128    -1.0357    -1.0304    -1.0143
                     A          A          A          A          A   
    1  C  1  S   -0.149457  -0.000789  -0.006200  -0.004750  -0.001211
    2  C  1  S   -0.008179   0.001640   0.011713   0.006348   0.001912
    3  C  1  X    0.000023  -0.001122  -0.002405  -0.001367  -0.002388
    4  C  1  Y    0.000434   0.000043  -0.005877  -0.004267   0.000680
    5  C  1  Z    0.000020  -0.000241  -0.000771  -0.000795   0.000147
    6  C  1  S    0.010208   0.000335   0.000034   0.024384   0.002695
    7  C  1  X   -0.001571   0.000424   0.004778  -0.013109  -0.000964
    8  C  1  Y   -0.003942   0.002099  -0.003915  -0.000632   0.001097
    9  C  1  Z   -0.000380   0.000940   0.001146  -0.002126   0.001028
   10  C  1 XX    0.001146   0.000059  -0.000540  -0.000008   0.000529
   11  C  1 YY    0.001002   0.000031   0.000321   0.000190  -0.000102
   12  C  1 ZZ    0.001234  -0.000093  -0.000780  -0.001016  -0.000234
   13  C  1 XY    0.000098  -0.000093   0.000096  -0.000191  -0.000147
   14  C  1 XZ   -0.000008  -0.000031   0.000071   0.000282  -0.000020
   15  C  1 YZ    0.000029  -0.000017   0.000108   0.000087  -0.000142
   16  C  2  S    0.981583  -0.000472  -0.016329  -0.013568   0.002785
   17  C  2  S    0.049245   0.000932   0.029042   0.025019  -0.006150
   18  C  2  X   -0.000292  -0.000537  -0.013464  -0.011119   0.001212
   19  C  2  Y    0.000091   0.000048  -0.010824  -0.010932   0.005146
   20  C  2  Z   -0.000168  -0.000069  -0.007823  -0.007890   0.004518
   21  C  2  S   -0.017719   0.001672   0.017646   0.011526   0.000709
   22  C  2  X    0.003202  -0.000698  -0.003864   0.003334  -0.002146
   23  C  2  Y   -0.002156   0.001197  -0.004469  -0.001240  -0.000491
   24  C  2  Z    0.000580  -0.000344  -0.005959  -0.003580   0.001655
   25  C  2 XX   -0.009144   0.000024   0.000978   0.000992  -0.000258
   26  C  2 YY   -0.008861   0.000008   0.001177   0.001177  -0.000649
   27  C  2 ZZ   -0.009342  -0.000033  -0.001316  -0.000824  -0.000346
   28  C  2 XY   -0.000064   0.000022   0.001993   0.001917  -0.000573
   29  C  2 XZ    0.000040   0.000033   0.001369   0.001315  -0.000689
   30  C  2 YZ    0.000039  -0.000039   0.001264   0.001057  -0.000475
   31  C  3  S   -0.003671  -0.001049  -0.059467  -0.049943   0.012549
   32  C  3  S   -0.000205   0.003057   0.111520   0.096284  -0.025396
   33  C  3  X   -0.000033  -0.000947  -0.002256   0.009379  -0.023358
   34  C  3  Y   -0.000061   0.000405  -0.012984  -0.016463   0.014916
   35  C  3  Z    0.000047  -0.000085  -0.056689  -0.062169   0.045958
   36  C  3  S    0.003258  -0.006299   0.054121   0.027981   0.000288
   37  C  3  X    0.000369   0.003641  -0.010121   0.005212  -0.010011
   38  C  3  Y    0.002108  -0.000740   0.005665   0.002712  -0.001770
   39  C  3  Z    0.001010   0.000092   0.009133   0.000758   0.005397
   40  C  3 XX   -0.000315   0.000063  -0.003532  -0.005716   0.006477
   41  C  3 YY   -0.000163   0.000086  -0.003566  -0.003078   0.001357
   42  C  3 ZZ   -0.000211   0.000080   0.010251   0.010638  -0.006489
   43  C  3 XY   -0.000188   0.000017  -0.001550  -0.000236  -0.001213
   44  C  3 XZ    0.000006   0.000006  -0.003406  -0.001847  -0.000956
   45  C  3 YZ   -0.000114  -0.000011   0.004909   0.004566  -0.002417
   46  C  4  S    0.000043  -0.005873  -0.049785  -0.004542  -0.064907
   47  C  4  S   -0.000192   0.011737   0.096658   0.008203   0.124454
   48  C  4  X   -0.000146  -0.004157  -0.000613   0.016776  -0.029453
   49  C  4  Y   -0.000041   0.004611  -0.009475  -0.007438  -0.013253
   50  C  4  Z   -0.000037   0.002471   0.036555  -0.011243   0.090872
   51  C  4  S    0.000055   0.006306   0.018476   0.016695   0.052634
   52  C  4  X   -0.000115   0.006902  -0.010126   0.011755  -0.006256
   53  C  4  Y   -0.000009  -0.002123  -0.003868  -0.003939   0.008942
   54  C  4  Z    0.001004  -0.000818  -0.012239  -0.000117  -0.003208
   55  C  4 XX   -0.000033   0.000310   0.000258   0.002135  -0.006733
   56  C  4 YY   -0.000035   0.000644  -0.003065  -0.000206  -0.006192
   57  C  4 ZZ    0.000022   0.000481   0.006666  -0.000460   0.014374
   58  C  4 XY   -0.000006  -0.000464  -0.000914  -0.000954   0.002639
   59  C  4 XZ   -0.000029  -0.000318  -0.004463  -0.000922  -0.006170
   60  C  4 YZ   -0.000017  -0.000211  -0.001627   0.000868  -0.005164
   61  C  5  S    0.000214  -0.020083  -0.017495   0.003287  -0.014927
   62  C  5  S   -0.000052   0.037378   0.031732  -0.007870   0.027992
   63  C  5  X   -0.000021  -0.024983  -0.004933   0.014163   0.007238
   64  C  5  Y    0.000046   0.010920  -0.018231   0.004522  -0.018380
   65  C  5  Z   -0.000004  -0.000030   0.008523  -0.004878   0.008037
   66  C  5  S    0.001463  -0.003228   0.022142   0.006664   0.017583
   67  C  5  X    0.001156   0.001365   0.004778   0.008439  -0.002677
   68  C  5  Y    0.000334  -0.000565  -0.017446   0.012459   0.012724
   69  C  5  Z   -0.000248  -0.001616   0.010065  -0.010656   0.001119
   70  C  5 XX   -0.000035   0.006216   0.001687  -0.003607  -0.002309
   71  C  5 YY   -0.000025   0.000334   0.001736   0.001140   0.004272
   72  C  5 ZZ   -0.000051  -0.002043  -0.001677  -0.000021  -0.000751
   73  C  5 XY    0.000032  -0.003213   0.000458  -0.000753  -0.000278
   74  C  5 XZ   -0.000003   0.000240  -0.001044   0.001455   0.000762
   75  C  5 YZ    0.000036  -0.000359  -0.000891  -0.000448  -0.002329
   76  C  6  S    0.001440  -0.005970  -0.004934  -0.003380  -0.005742
   77  C  6  S    0.000157   0.010630   0.010110   0.005500   0.009650
   78  C  6  X   -0.000018  -0.007424  -0.001158   0.001170  -0.003359
   79  C  6  Y   -0.000005  -0.001213  -0.006289  -0.001328  -0.004735
   80  C  6  Z   -0.000010  -0.000316   0.000913  -0.000475   0.000642
   81  C  6  S   -0.003549   0.006711   0.010558  -0.017682   0.001628
   82  C  6  X   -0.000241  -0.004335   0.009357  -0.015134  -0.002068
   83  C  6  Y    0.001685  -0.003685  -0.000215   0.009844  -0.001537
   84  C  6  Z    0.000051  -0.001994  -0.000890  -0.000628   0.000132
   85  C  6 XX    0.000113   0.000966   0.000087   0.000057  -0.000288
   86  C  6 YY    0.000079  -0.000378  -0.000111   0.000182   0.000430
   87  C  6 ZZ    0.000030  -0.000734  -0.000402  -0.000698  -0.000948
   88  C  6 XY   -0.000039   0.000076   0.000045   0.000165   0.000595
   89  C  6 XZ    0.000011   0.000345  -0.000007   0.000048   0.000001
   90  C  6 YZ    0.000001  -0.000188   0.000070  -0.000194  -0.000316
   91  C  7  S    0.000001  -0.116690  -0.031062   0.045427   0.023750
   92  C  7  S    0.000002   0.227278   0.061386  -0.091336  -0.048394
   93  C  7  X   -0.000003  -0.073114  -0.055655   0.088536   0.054303
   94  C  7  Y   -0.000002   0.044872  -0.096853   0.126349   0.052537
   95  C  7  Z    0.000002  -0.009023   0.062721  -0.085305  -0.038677
   96  C  7  S    0.000435   0.054188   0.022192  -0.023081  -0.016120
   97  C  7  X   -0.000021   0.035626   0.016886  -0.020286  -0.014646
   98  C  7  Y   -0.000433  -0.015021   0.015939  -0.025329  -0.012451
   99  C  7  Z    0.000192  -0.000215  -0.010378   0.016685   0.007722
  100  C  7 XX    0.000014  -0.008450   0.006210  -0.007059  -0.002400
  101  C  7 YY    0.000012   0.006158  -0.009526   0.012376   0.005486
  102  C  7 ZZ   -0.000002  -0.011565  -0.004475   0.006116   0.002992
  103  C  7 XY    0.000001   0.004633   0.010018  -0.014535  -0.007734
  104  C  7 XZ   -0.000006  -0.005311  -0.008062   0.011266   0.005668
  105  C  7 YZ    0.000000  -0.017426   0.000400   0.000138   0.000601
  106  O  8  S    0.000013  -0.095584  -0.091126   0.129828   0.065327
  107  O  8  S    0.000060   0.205647   0.193753  -0.278388  -0.143330
  108  O  8  X    0.000003   0.063077   0.057784  -0.080380  -0.037902
  109  O  8  Y   -0.000002   0.053310   0.031518  -0.048335  -0.028798
  110  O  8  Z   -0.000005  -0.040992  -0.028043   0.041605   0.023190
  111  O  8  S   -0.000428   0.194340   0.201969  -0.285627  -0.139932
  112  O  8  X   -0.000111   0.020630   0.025025  -0.033745  -0.012794
  113  O  8  Y   -0.000027   0.025162   0.007309  -0.014487  -0.012925
  114  O  8  Z    0.000063  -0.016908  -0.008456   0.014382   0.011569
  115  O  8 XX    0.000028  -0.000750   0.000254  -0.000596  -0.000427
  116  O  8 YY    0.000040   0.000213  -0.004393   0.005264   0.001460
  117  O  8 ZZ    0.000033  -0.001617  -0.004013   0.004687   0.001017
  118  O  8 XY   -0.000007   0.006805   0.002939  -0.005160  -0.003790
  119  O  8 XZ    0.000009  -0.004373  -0.002645   0.004278   0.002931
  120  O  8 YZ   -0.000002  -0.004181  -0.001485   0.001899   0.000611
  121  O  9  S   -0.000007  -0.167364   0.072193  -0.089594  -0.033235
  122  O  9  S   -0.000031   0.368666  -0.159740   0.197227   0.072947
  123  O  9  X    0.000006   0.077574  -0.042854   0.055335   0.023025
  124  O  9  Y   -0.000000  -0.069369   0.007703  -0.006583   0.000874
  125  O  9  Z    0.000000   0.008605   0.011330  -0.016184  -0.008453
  126  O  9  S    0.000249   0.363029  -0.168761   0.214093   0.081738
  127  O  9  X    0.000010   0.036698  -0.025716   0.033578   0.014712
  128  O  9  Y   -0.000039  -0.036486   0.003900  -0.004916  -0.000817
  129  O  9  Z    0.000017   0.005696   0.006232  -0.008458  -0.003960
  130  O  9 XX   -0.000022   0.005267  -0.004322   0.005315   0.002249
  131  O  9 YY   -0.000017   0.005778   0.002535  -0.004024  -0.002221
  132  O  9 ZZ   -0.000012  -0.002272   0.001632  -0.002609  -0.001163
  133  O  9 XY   -0.000000  -0.000504  -0.000458   0.000487   0.000077
  134  O  9 XZ   -0.000001  -0.006710   0.003933  -0.004992  -0.001938
  135  O  9 YZ    0.000003  -0.009926   0.001367  -0.001415  -0.000204
  136  O 10  S    0.000051  -0.007490  -0.091129   0.008843  -0.175976
  137  O 10  S    0.000253   0.015857   0.199516  -0.018576   0.388043
  138  O 10  X    0.000032  -0.002883  -0.026584   0.006849  -0.055183
  139  O 10  Y   -0.000012   0.002965   0.023244  -0.003843   0.042957
  140  O 10  Z   -0.000047  -0.003905  -0.041544   0.001890  -0.072399
  141  O 10  S   -0.001272   0.016588   0.201170  -0.020972   0.386288
  142  O 10  X   -0.000308  -0.002392  -0.013446   0.000066  -0.028623
  143  O 10  Y   -0.000058   0.001921   0.013590  -0.001373   0.021525
  144  O 10  Z    0.000471  -0.002593  -0.023210   0.002771  -0.036515
  145  O 10 XX    0.000112   0.000246   0.005149  -0.000481   0.010830
  146  O 10 YY    0.000169  -0.000246  -0.003668   0.000611  -0.006688
  147  O 10 ZZ    0.000112   0.000219   0.003054   0.000347   0.004578
  148  O 10 XY   -0.000000  -0.000521  -0.003847   0.000721  -0.007147
  149  O 10 XZ    0.000064   0.000235  -0.001957   0.000027  -0.003615
  150  O 10 YZ    0.000022  -0.000513  -0.003128   0.000321  -0.004748
  151  O 11  S   -0.000099  -0.000967  -0.131589  -0.130885   0.074033
  152  O 11  S   -0.000473   0.001939   0.290988   0.289260  -0.163962
  153  O 11  X   -0.000045  -0.000113  -0.004135  -0.002805  -0.000352
  154  O 11  Y   -0.000072   0.000584   0.072965   0.072151  -0.040380
  155  O 11  Z   -0.000135   0.000346   0.023561   0.021068  -0.007517
  156  O 11  S    0.001783   0.002952   0.285005   0.284441  -0.161642
  157  O 11  X    0.000177  -0.000408  -0.000824  -0.002632   0.002200
  158  O 11  Y    0.000364   0.000504   0.036923   0.037316  -0.020744
  159  O 11  Z    0.000840   0.000562   0.013815   0.012788  -0.005468
  160  O 11 XX   -0.000361  -0.000145  -0.007265  -0.007369   0.004039
  161  O 11 YY   -0.000242   0.000025   0.007631   0.007523  -0.004280
  162  O 11 ZZ   -0.000191   0.000066   0.007361   0.006953  -0.003419
  163  O 11 XY    0.000129  -0.000017   0.000139   0.000166  -0.000110
  164  O 11 XZ    0.000031  -0.000085  -0.001581  -0.001792   0.001032
  165  O 11 YZ    0.000096   0.000027  -0.002860  -0.003093   0.002293
  166  H 12  S    0.000080   0.000114   0.001526   0.001077   0.000165
  167  H 12  S    0.000457  -0.001026  -0.000280   0.002344  -0.000170
  168  H 13  S   -0.000428   0.000152   0.005008   0.004196  -0.001511
  169  H 13  S    0.001247   0.000180   0.001481  -0.000653   0.000173
  170  H 14  S   -0.000103   0.000593   0.021378   0.017452  -0.001773
  171  H 14  S    0.000319   0.000254   0.002572   0.003010  -0.000178
  172  H 15  S    0.000062   0.002866   0.019007   0.003235   0.020702
  173  H 15  S    0.000331   0.001272  -0.001767   0.000512  -0.001152
  174  H 16  S   -0.000042   0.003544   0.000704   0.001046   0.001771
  175  H 16  S   -0.000189   0.006284  -0.003890   0.001376   0.002451
  176  H 17  S    0.000004   0.096014  -0.050855   0.064571   0.025647
  177  H 17  S   -0.000036  -0.007787   0.001052  -0.000325   0.001081
  178  H 18  S    0.000017   0.006239   0.056425  -0.010199   0.106867
  179  H 18  S   -0.000128  -0.000164  -0.002590  -0.002803  -0.009701
  180  H 19  S   -0.000212   0.000595   0.083438   0.083364  -0.048231
  181  H 19  S    0.000524  -0.000165  -0.001625  -0.001167  -0.000977

                     16         17         18         19         20
                   -0.8577    -0.7799    -0.7454    -0.6613    -0.6390
                     A          A          A          A          A   
    1  C  1  S   -0.107889  -0.089405   0.083324   0.004817  -0.068046
    2  C  1  S    0.207158   0.176813  -0.164592  -0.009055   0.139736
    3  C  1  X   -0.049704   0.044188   0.030926   0.106838   0.064086
    4  C  1  Y   -0.034287  -0.086513  -0.038350  -0.121011  -0.029242
    5  C  1  Z   -0.006261   0.001829   0.004356   0.008645   0.006328
    6  C  1  S    0.138682   0.116735  -0.124273  -0.014876   0.087168
    7  C  1  X   -0.009846   0.018693   0.002188   0.030308   0.038739
    8  C  1  Y    0.000895   0.002458  -0.018950  -0.023128   0.016229
    9  C  1  Z   -0.001913   0.000576  -0.000067   0.002192   0.002441
   10  C  1 XX    0.004507  -0.007168  -0.004737  -0.008555  -0.004145
   11  C  1 YY    0.002259   0.007493   0.002225   0.006508   0.000558
   12  C  1 ZZ   -0.011501  -0.008291   0.007915   0.000839  -0.005318
   13  C  1 XY   -0.001078   0.001258   0.001754   0.000696   0.004372
   14  C  1 XZ    0.002059   0.000425  -0.001776  -0.001282   0.000386
   15  C  1 YZ    0.000298   0.000639  -0.000081   0.000461   0.000648
   16  C  2  S   -0.082403  -0.126997  -0.013320  -0.089267   0.005607
   17  C  2  S    0.158708   0.248197   0.029007   0.179256  -0.014947
   18  C  2  X   -0.037049  -0.019104  -0.037411   0.050999   0.033462
   19  C  2  Y    0.049783   0.042313  -0.095571   0.020141   0.156990
   20  C  2  Z   -0.003309  -0.004385  -0.002911  -0.001078   0.009504
   21  C  2  S    0.097554   0.187259   0.004135   0.161134   0.012422
   22  C  2  X    0.000799   0.002571   0.001560   0.020801  -0.007846
   23  C  2  Y    0.006875   0.004039  -0.019068  -0.004561   0.042722
   24  C  2  Z    0.001201  -0.000281   0.003890  -0.002282   0.000070
   25  C  2 XX    0.000410  -0.000013   0.006210  -0.000142  -0.004547
   26  C  2 YY    0.003628   0.003771  -0.003058  -0.001810   0.001697
   27  C  2 ZZ   -0.008813  -0.012308  -0.001308  -0.007189   0.000134
   28  C  2 XY   -0.002625  -0.001208   0.007203  -0.002823  -0.006239
   29  C  2 XZ    0.001160   0.001896   0.000867   0.001294  -0.001249
   30  C  2 YZ   -0.000323   0.000279   0.000577   0.000294  -0.001328
   31  C  3  S   -0.041364  -0.055726  -0.113007   0.032189   0.089744
   32  C  3  S    0.076759   0.107647   0.227228  -0.067369  -0.189435
   33  C  3  X    0.002416   0.054221  -0.050588   0.098939  -0.106659
   34  C  3  Y    0.048535   0.036847   0.018295   0.037853   0.064042
   35  C  3  Z    0.028261   0.033453   0.050176  -0.007202  -0.022290
[...]
            179  H 18  S      0.11904     0.22439
            180  H 19  S      0.47845     0.43588
            181  H 19  S      0.13331     0.22163

          ----- MULLIKEN ATOMIC OVERLAP POPULATIONS -----
          (OFF-DIAGONAL ELEMENTS NEED TO BE MULTIPLIED BY 2)

             1           2           3           4           5

    1    4.8513562
    2    0.6193944   5.0185349
    3   -0.0133078   0.3312490   4.9221603
    4   -0.0287793  -0.0148372   0.2700951   5.0357261
    5   -0.0219517  -0.0461773   0.0048808   0.2514720   5.3234568
    6    0.4136718  -0.0308305  -0.0367787  -0.0256530   0.5322203
    7    0.0034418  -0.0000331   0.0045929  -0.0312834   0.3029727
    8   -0.0000412  -0.0000160   0.0005067   0.0080443  -0.0964426
    9    0.0003795  -0.0000093  -0.0000288   0.0027565  -0.1047923
   10   -0.0014278   0.0062233  -0.0428729   0.2160836  -0.0468894
   11   -0.0027978  -0.0429023   0.2419724  -0.0468215   0.0051945
   12    0.3640217  -0.0443900   0.0050755  -0.0000140   0.0054537
   13   -0.0393101   0.3618239  -0.0435819   0.0050646   0.0001254
   14    0.0042464  -0.0412756   0.3711550  -0.0556492   0.0065525
   15   -0.0000565   0.0067208  -0.0611081   0.3672519  -0.0591976
   16   -0.0326202   0.0054825   0.0000940   0.0046747  -0.0638375
   17   -0.0002031  -0.0000032  -0.0000284   0.0001885   0.0077266
   18    0.0000447  -0.0003732   0.0061339  -0.0172853  -0.0117365
   19    0.0055561  -0.0048927  -0.0266903  -0.0057274   0.0017709

             6           7           8           9          10

    6    5.0252281
    7   -0.0351917   4.3750661
    8    0.0012496   0.5534960   8.0421512
    9    0.0013091   0.2888683  -0.0725407   8.2234645
   10    0.0012433  -0.0053922  -0.0099115  -0.0000191   8.3177832
   11   -0.0005781  -0.0000818   0.0000004   0.0000001   0.0014726
   12   -0.0445817  -0.0000661   0.0000006   0.0000020  -0.0000148
   13    0.0053752   0.0000053  -0.0000000  -0.0000000  -0.0000755
   14    0.0003106  -0.0001290   0.0000009   0.0000004   0.0078186
   15    0.0070175  -0.0075788   0.0027741   0.0001073  -0.0332962
   16    0.3528847  -0.0063073  -0.0000119   0.0051917  -0.0001148
   17    0.0062210  -0.0214976   0.0046030   0.2219079   0.0000280
   18   -0.0008630   0.0043126   0.0310982   0.0002697   0.2255453
   19    0.0004497  -0.0000934  -0.0000008   0.0000003  -0.0000224

            11          12          13          14          15

   11    8.2572418
   12   -0.0000856   0.5812165
   13    0.0031396  -0.0067932   0.5661445
   14   -0.0380001  -0.0001364  -0.0056723   0.5676321
   15    0.0076865   0.0000080  -0.0001519  -0.0009742   0.6266826
   16   -0.0000050  -0.0050376  -0.0001518   0.0000137  -0.0001497
   17    0.0000003  -0.0000021  -0.0000002  -0.0000000  -0.0000482
   18   -0.0001204   0.0000009   0.0000083  -0.0001802  -0.0048195
   19    0.2275668  -0.0000881  -0.0005319   0.0074462  -0.0001205

            16          17          18          19

   16    0.5952757
   17    0.0045022   0.3653535
   18   -0.0000121  -0.0000372   0.3501801
   19   -0.0000163   0.0000015   0.0000038   0.4071476

          TOTAL MULLIKEN AND LOWDIN ATOMIC POPULATIONS
       ATOM         MULL.POP.    CHARGE          LOW.POP.     CHARGE
    1 C             6.121617   -0.121617         6.173001   -0.173001
    2 C             6.123688   -0.123688         6.142120   -0.142120
    3 C             5.933519    0.066481         6.005460   -0.005460
    4 C             5.935307    0.064693         6.011191   -0.011191
    5 C             5.990801    0.009199         6.081547   -0.081547
    6 C             6.172704   -0.172704         6.143240   -0.143240
    7 C             5.425101    0.574899         5.800672    0.199328
    8 O             8.464960   -0.464960         8.255523   -0.255523
    9 O             8.566867   -0.566867         8.347474   -0.347474
   10 O             8.636161   -0.636161         8.457849   -0.457849
   11 O             8.612882   -0.612882         8.450112   -0.450112
   12 H             0.854569    0.145431         0.833644    0.166356
   13 H             0.845418    0.154582         0.831185    0.168815
   14 H             0.823159    0.176841         0.828591    0.171409
   15 H             0.850748    0.149252         0.849030    0.150970
   16 H             0.859855    0.140145         0.843277    0.156723
   17 H             0.588713    0.411287         0.639668    0.360332
   18 H             0.582170    0.417830         0.648903    0.351097
   19 H             0.611759    0.388241         0.657512    0.342488

          -------------------------------
          BOND ORDER AND VALENCE ANALYSIS     BOND ORDER THRESHOLD=0.050
          -------------------------------

                   BOND                       BOND                       BOND
  ATOM PAIR DIST  ORDER      ATOM PAIR DIST  ORDER      ATOM PAIR DIST  ORDER
    1   2  1.345  1.810        1   6  1.458  1.139        1  12  1.087  0.925
    2   3  1.506  0.995        2   5  2.866  0.089        2  13  1.087  0.923
    3   4  1.542  0.934        3  11  1.435  0.927        3  14  1.094  0.911
    4   5  1.520  0.937        4  10  1.426  0.951        4  15  1.099  0.909
    5   6  1.351  1.710        5   7  1.486  0.994        6  16  1.090  0.917
    7   8  1.216  1.804        7   9  1.357  1.062        8   9  2.227  0.065
    8  18  2.162  0.063        9  17  0.971  0.754       10  18  0.975  0.733
   11  19  0.971  0.786

                       TOTAL       BONDED        FREE
      ATOM            VALENCE     VALENCE     VALENCE
    1 C                 3.948       3.948       0.000
    2 C                 3.869       3.869       0.000
    3 C                 3.800       3.800       0.000
    4 C                 3.793       3.793       0.000
    5 C                 3.758       3.758      -0.000
    6 C                 3.924       3.924      -0.000
    7 C                 3.933       3.933      -0.000
    8 O                 2.050       2.050       0.000
    9 O                 1.920       1.920       0.000
   10 O                 1.762       1.762      -0.000
   11 O                 1.802       1.802       0.000
   12 H                 0.932       0.932       0.000
   13 H                 0.933       0.933       0.000
   14 H                 0.928       0.928       0.000
   15 H                 0.930       0.930      -0.000
   16 H                 0.938       0.938       0.000
   17 H                 0.811       0.811      -0.000
   18 H                 0.816       0.816       0.000
   19 H                 0.815       0.815      -0.000

          ---------------------
          ELECTROSTATIC MOMENTS
          ---------------------

 POINT   1           X           Y           Z (BOHR)    CHARGE
                -1.734784   -0.005928   -0.042043        0.00 (A.U.)
         DX          DY          DZ         /D/  (DEBYE)
     3.482870    2.960943   -2.036043    5.004302
 ...... END OF PROPERTY EVALUATION ......
 CPU     0: STEP CPU TIME=     0.10 TOTAL CPU TIME=      203.0 (    3.4 MIN)
 TOTAL WALL CLOCK TIME=      204.3 SECONDS, CPU UTILIZATION IS  99.33%

 BEGINNING ONE ELECTRON GRADIENT...
 ..... END OF 1-ELECTRON GRADIENT ......
 CPU     0: STEP CPU TIME=     0.29 TOTAL CPU TIME=      203.3 (    3.4 MIN)
 TOTAL WALL CLOCK TIME=      204.7 SECONDS, CPU UTILIZATION IS  99.33%

          ----------------------
          GRADIENT OF THE ENERGY
          ----------------------
 MEMORY FOR GRID POINT CONTRIBUTIONS TO THE DFT GRADIENT=    787741 WORDS.
 CPU     0: STEP CPU TIME=    38.17 TOTAL CPU TIME=      241.4 (    4.0 MIN)
 TOTAL WALL CLOCK TIME=      243.0 SECONDS, CPU UTILIZATION IS  99.36%

 THE MINIMUM MEMORY REQUIRED FOR THIS RUN IS     269457 WORDS.
 USING    1244977 WORDS FOR 2E- DERIVATIVE INTEGRAL CONTRIBUTIONS.
 THE COARSE/FINE SCHWARZ SCREENINGS SKIPPED       578063/      327851 BLOCKS.
 THE NUMBER OF GRADIENT INTEGRAL BLOCKS COMPUTED WAS    698201
 ...... END OF 2-ELECTRON GRADIENT ......
 CPU     0: STEP CPU TIME=    16.60 TOTAL CPU TIME=      258.0 (    4.3 MIN)
 TOTAL WALL CLOCK TIME=      259.6 SECONDS, CPU UTILIZATION IS  99.38%

          NSERCH=  0     ENERGY=    -572.4028395

                                 -----------------------
                                 GRADIENT (HARTREE/BOHR)
                                 -----------------------
        ATOM     ZNUC       DE/DX         DE/DY         DE/DZ
 --------------------------------------------------------------
    1  C            6.0     0.0000931    -0.0000085    -0.0000339
    2  C            6.0    -0.0000910    -0.0000695    -0.0001226
    3  C            6.0     0.0002662    -0.0000661     0.0001268
    4  C            6.0     0.0001535    -0.0000000    -0.0000684
    5  C            6.0     0.0001130    -0.0000021    -0.0000654
    6  C            6.0    -0.0000659     0.0000458     0.0001890
    7  C            6.0    -0.0000547     0.0001033     0.0000270
    8  O            8.0     0.0000289    -0.0000432    -0.0000693
    9  O            8.0    -0.0000494    -0.0000111     0.0000104
   10  O            8.0    -0.0000958     0.0000235     0.0000580
   11  O            8.0    -0.0001190    -0.0000340    -0.0000560
   12  H            1.0    -0.0000058    -0.0000044     0.0000000
   13  H            1.0    -0.0000031     0.0000464    -0.0000292
   14  H            1.0    -0.0001139     0.0001493     0.0000447
   15  H            1.0    -0.0000304     0.0000033     0.0000035
   16  H            1.0     0.0000583     0.0000045     0.0000054
   17  H            1.0    -0.0000336    -0.0000782     0.0000107
   18  H            1.0    -0.0000427    -0.0000502    -0.0000393
   19  H            1.0    -0.0000079    -0.0000089     0.0000085

          MAXIMUM GRADIENT = 0.0002662    RMS GRADIENT = 0.0000762

 NSERCH:   0  E=     -572.4028394632  GRAD. MAX=  0.0002662  R.M.S.=  0.0000762


      ***** EQUILIBRIUM GEOMETRY LOCATED *****
 COORDINATES OF ALL ATOMS ARE (ANGS)
   ATOM   CHARGE       X              Y              Z
 ------------------------------------------------------------
 C           6.0   1.1846999742   0.8792580075   0.1084402265
 C           6.0   1.4523086164  -0.4392446067   0.1134616892
 C           6.0   0.3783964324  -1.4636017705  -0.1414094800
 C           6.0  -1.0555856952  -0.9641796660   0.1287342961
 C           6.0  -1.2385130995   0.5304369816  -0.0762204276
 C           6.0  -0.1807211774   1.3705170344  -0.0356401301
 C           6.0  -2.6477300993   1.0009599236  -0.0587857546
 O           8.0  -3.5357359197   0.3554613207   0.4643643661
 O           8.0  -2.9320164232   2.1982245637  -0.6302104034
 O           8.0  -1.3742810195  -1.2891753143   1.4802027262
 O           8.0   0.5263513293  -1.9627129972  -1.4791155785
 H           1.0   1.9812593949   1.6101546013   0.2199733865
 H           1.0   2.4723859398  -0.8024273664   0.2064468244
 H           1.0   0.5167183028  -2.3374419681   0.5024418424
 H           1.0  -1.7111284267  -1.5140052998  -0.5617610489
 H           1.0  -0.3238457516   2.4504517373  -0.0557608873
 H           1.0  -2.1578183913   2.5121003536  -1.1258540101
 H           1.0  -2.3027398390  -1.0140681042   1.5951249204
 H           1.0   0.5838958501  -1.1940448691  -2.0698194677

          INTERNUCLEAR DISTANCES (ANGS.)
          ------------------------------

                1 C          2 C          3 C          4 C          5 C     

   1 C       0.0000000    1.3453954 *  2.4902896 *  2.9013022 *  2.4551451 *
   2 C       1.3453954 *  0.0000000    1.5058401 *  2.5622888 *  2.8664932 *
   3 C       2.4902896 *  1.5058401 *  0.0000000    1.5423050 *  2.5680414 *
   4 C       2.9013022 *  2.5622888 *  1.5423050 *  0.0000000    1.5196538 *
   5 C       2.4551451 *  2.8664932 *  2.5680414 *  1.5196538 *  0.0000000  
   6 C       1.4582419 *  2.4421824 *  2.8906797 *  2.4986427 *  1.3514085 *
   7 C       3.8380068    4.3490431    3.9036307    2.5361114 *  1.4857955 *
   8 O       4.7627261    5.0631293    4.3584842    2.8293542 *  2.3664490 *
   9 O       4.3855024    5.1702609    4.9605173    3.7547024    2.4405683 *
  10 O       3.6238404    3.2526869    2.3941447 *  1.4260630 *  2.3983067 *
  11 O       3.3212280    2.3905345 *  1.4354303 *  2.4667336 *  3.3613477  
  12 H       1.0868102 *  2.1192383 *  3.4853616    3.9822041    3.4088790  
  13 H       2.1203316 *  1.0867869 *  2.2232741 *  3.5325326    3.9531253  
  14 H       3.3088662    2.1516942 *  1.0942002 *  2.1207656 *  3.4118055  
  15 H       3.8161107    3.4085730    2.1319827 *  1.0994673 *  2.1538011 *
  16 H       2.1843356 *  3.3961310    3.9774734    3.4970258    2.1268502 *
  17 H       3.9194496    4.8248686    4.8174396    3.8566088    2.4236012 *
  18 H       4.2375879    4.0775160    3.2258524    1.9256645 *  2.5122639 *
  19 H       3.0666538    2.4679102 *  1.9579724 *  2.7521585 *  3.2045981  

                6 C          7 C          8 O          9 O         10 O     

   1 C       1.4582419 *  3.8380068    4.7627261    4.3855024    3.6238404  
   2 C       2.4421824 *  4.3490431    5.0631293    5.1702609    3.2526869  
   3 C       2.8906797 *  3.9036307    4.3584842    4.9605173    2.3941447 *
   4 C       2.4986427 *  2.5361114 *  2.8293542 *  3.7547024    1.4260630 *
   5 C       1.3514085 *  1.4857955 *  2.3664490 *  2.4405683 *  2.3983067 *
   6 C       0.0000000    2.4946425 *  3.5406873    2.9339801 *  3.2857766  
   7 C       2.4946425 *  0.0000000    1.2161040 *  1.3567562 *  3.0388941  
   8 O       3.5406873    1.2161040 *  0.0000000    2.2267347 *  2.8997663 *
   9 O       2.9339801 *  1.3567562 *  2.2267347 *  0.0000000    4.3637531  
  10 O       3.2857766    3.0388941    2.8997663 *  4.3637531    0.0000000  
  11 O       3.7005399    4.5689700    5.0647408    5.4767097    3.5810084  
  12 H       2.1901882 *  4.6772180    5.6631457    5.0208483    4.6101999  
  13 H       3.4379166    5.4349004    6.1241127    6.2379061    4.0812038  
  14 H       3.8111565    4.6339656    4.8657541    5.8093841    2.3729218 *
  15 H       3.3074792    2.7304316 *  2.8066049 *  3.9084400    2.0817374 *
  16 H       1.0895634 *  2.7388819 *  3.8698519    2.6825669 *  4.1770096  
  17 H       2.5299589 *  1.9136859 *  3.0130621    0.9713718 *  4.6749502  
  18 H       3.5844950    2.6295963 *  2.1620614 *  3.9581474    0.9751548 *
  19 H       3.3614733    4.3938262    5.0788210    5.0932902    4.0553870  

               11 O         12 H         13 H         14 H         15 H     

   1 C       3.3212280    1.0868102 *  2.1203316 *  3.3088662    3.8161107  
   2 C       2.3905345 *  2.1192383 *  1.0867869 *  2.1516942 *  3.4085730  
   3 C       1.4354303 *  3.4853616    2.2232741 *  1.0942002 *  2.1319827 *
   4 C       2.4667336 *  3.9822041    3.5325326    2.1207656 *  1.0994673 *
   5 C       3.3613477    3.4088790    3.9531253    3.4118055    2.1538011 *
   6 C       3.7005399    2.1901882 *  3.4379166    3.8111565    3.3074792  
   7 C       4.5689700    4.6772180    5.4349004    4.6339656    2.7304316 *
   8 O       5.0647408    5.6631457    6.1241127    4.8657541    2.8066049 *
   9 O       5.4767097    5.0208483    6.2379061    5.8093841    3.9084400  
  10 O       3.5810084    4.6101999    4.0812038    2.3729218 *  2.0817374 *
  11 O       0.0000000    4.2153343    2.8239040 *  2.0167014 *  2.4595108 *
  12 H       4.2153343    0.0000000    2.4621007 *  4.2199748    4.8995114  
  13 H       2.8239040 *  2.4621007 *  0.0000000    2.5037010 *  4.3125722  
  14 H       2.0167014 *  4.2199748    2.5037010 *  0.0000000    2.6026672 *
  15 H       2.4595108 *  4.8995114    4.3125722    2.6026672 *  0.0000000  
  16 H       4.7143183    2.4689347 *  4.2975443    4.8930629    4.2305448  
  17 H       5.2300588    4.4448535    5.8480691    5.7725692    4.0898973  
  18 H       4.2842314    5.2086693    4.9774537    3.3006998    2.2917457 *
  19 H       0.9711298 *  3.8806328    2.9834791 *  2.8157411 *  2.7647335 *

               16 H         17 H         18 H         19 H     

   1 C       2.1843356 *  3.9194496    4.2375879    3.0666538  
   2 C       3.3961310    4.8248686    4.0775160    2.4679102 *
   3 C       3.9774734    4.8174396    3.2258524    1.9579724 *
   4 C       3.4970258    3.8566088    1.9256645 *  2.7521585 *
   5 C       2.1268502 *  2.4236012 *  2.5122639 *  3.2045981  
   6 C       1.0895634 *  2.5299589 *  3.5844950    3.3614733  
   7 C       2.7388819 *  1.9136859 *  2.6295963 *  4.3938262  
   8 O       3.8698519    3.0130621    2.1620614 *  5.0788210  
   9 O       2.6825669 *  0.9713718 *  3.9581474    5.0932902  
  10 O       4.1770096    4.6749502    0.9751548 *  4.0553870  
  11 O       4.7143183    5.2300588    4.2842314    0.9711298 *
  12 H       2.4689347 *  4.4448535    5.2086693    3.8806328  
  13 H       4.2975443    5.8480691    4.9774537    2.9834791 *
  14 H       4.8930629    5.7725692    3.3006998    2.8157411 *
  15 H       4.2305448    4.0898973    2.2917457 *  2.7647335 *
  16 H       0.0000000    2.1242306 *  4.3179096    4.2617816  
  17 H       2.1242306 *  0.0000000    4.4562981    4.7056966  
  18 H       4.3179096    4.4562981    0.0000000    4.6687123  
  19 H       4.2617816    4.7056966    4.6687123    0.0000000  

  * ... LESS THAN  3.000


          NUCLEAR ENERGY    =      624.2404910108
          ELECTRONIC ENERGY =    -1196.6433304740
          TOTAL ENERGY      =     -572.4028394632

 THE INITIAL GEOMETRY IS ALREADY CONVERGED,
 SO ORBITALS/PROPERTY OUTPUT IS ALREADY PRINTED ABOVE
  $VIB   
          IVIB=   0 IATOM=   0 ICOORD=   0 E=     -572.4028394632
  9.307898887E-05-8.460210211E-06-3.387446978E-05-9.098639245E-05-6.951946527E-05
 -1.225675315E-04 2.661954572E-04-6.612286378E-05 1.267519153E-04 1.535045257E-04
 -3.492727936E-08-6.841185808E-05 1.129860659E-04-2.060734162E-06-6.541489575E-05
 -6.587740864E-05 4.581835427E-05 1.889632181E-04-5.467449434E-05 1.033333975E-04
  2.703281180E-05 2.888705915E-05-4.316238956E-05-6.934407223E-05-4.935092603E-05
 -1.108680781E-05 1.044280413E-05-9.576699388E-05 2.353639381E-05 5.804800555E-05
 -1.189744980E-04-3.402795593E-05-5.598378986E-05-5.753800352E-06-4.354551458E-06
  3.425230802E-08-3.054710328E-06 4.636305275E-05-2.918243753E-05-1.138958895E-04
  1.492880521E-04 4.469940409E-05-3.043856094E-05 3.345120124E-06 3.456422260E-06
  5.828200546E-05 4.489703666E-06 5.437557787E-06-3.355291251E-05-7.815412916E-05
  1.073465310E-05-4.268556799E-05-5.024338072E-05-3.933792234E-05-7.921947369E-06
 -8.946658861E-06 8.515932719E-06
  3.482869891E+00 2.960943239E+00-2.036043189E+00
 ......END OF GEOMETRY SEARCH......
 CPU     0: STEP CPU TIME=     0.00 TOTAL CPU TIME=      258.0 (    4.3 MIN)
 TOTAL WALL CLOCK TIME=      259.7 SECONDS, CPU UTILIZATION IS  99.38%
               1245433  WORDS OF DYNAMIC MEMORY USED
 EXECUTION OF GAMESS TERMINATED NORMALLY Thu May 22 05:34:03 2014
 DDI: 263624 bytes (0.3 MB / 0 MWords) used by master data server.

 ----------------------------------------
 CPU timing information for all processes
 ========================================
 0: 257.588 + 0.476 = 258.65
 1: 257.663 + 0.357 = 258.21
 ----------------------------------------
 ddikick.x: exited gracefully.
----- accounting info -----
Files used on the master node localhost were:
-rw-r--r-- 1 maho staff    1497 May 22 05:29 ./000000003.4.F05
-rw-r--r-- 1 maho staff 4482640 May 22 05:34 ./000000003.4.F10
-rw-r--r-- 1 maho staff 4970872 May 22 05:31 ./000000003.4.F22
-rw-r--r-- 1 maho staff 4970872 May 22 05:31 ./000000003.4.F22.001
-rw-r--r-- 1 maho staff  595325 May 22 05:34 ./000000003.4.dat
-rw-r--r-- 1 maho staff    1497 May 22 05:29 ./000000003.4.inp
Thu May 22 05:34:06 JST 2014
0.133u 0.052s 4:23.49 0.0%	0+0k 0+104io 0pf+0w
0.13user 0.05system 4:23.56elapsed 0%CPU (0avgtext+0avgdata 5792maxresident)k
0inputs+112outputs (0major+13777minor)pagefaults 0swaps
model name	: Intel(R) Core(TM)2 CPU         L7400  @ 1.50GHz
